ITEM: TIMESTEP
0
ITEM: NUMBER OF ATOMS
4608
ITEM: BOX BOUNDS xy xz yz pp pp pp
0 162.991 7.25478
0 73.2452 0
-0.5 0.5 0
ITEM: ATOMS id mol type x y z vx vy vz
1 1 1 160.039 47.2203 0 0 0 0
2 1 2 160.207 45.6386 0 0 0 0
3 2 1 159.03 41.1556 0 0 0 0
4 2 2 159.07 39.546 0 0 0 0
5 3 1 131.978 38.2328 0 0 0 0
6 3 2 133.173 39.3002 0 0 0 0
7 4 1 137.116 52.0821 0 0 0 0
8 4 2 138.546 52.642 0 0 0 0
9 5 1 8.3474 53.6286 0 0 0 0
10 5 2 7.5661 52.3195 0 0 0 0
11 6 1 22.2759 70.6942 0 0 0 0
12 6 2 22.3886 72.3358 0 0 0 0
13 7 1 20.6534 5.38586 0 0 0 0
14 7 2 22.2165 4.95813 0 0 0 0
15 8 1 159.954 61.8524 0 0 0 0
16 8 2 159.803 63.4604 0 0 0 0
17 9 1 129.816 62.3453 0 0 0 0
18 9 2 128.97 63.7137 0 0 0 0
19 10 1 3.8236 45.2613 0 0 0 0
20 10 2 5.3828 45.9498 0 0 0 0
21 11 1 135.295 2.75441 0 0 0 0
22 11 2 135.336 4.34072 0 0 0 0
23 12 1 143.854 46.1173 0 1 0 0
24 12 2 142.255 46.0374 0 1 0 0
25 13 1 149.696 19.896 0 1 0 0
26 13 2 151.297 20.1265 0 1 0 0
27 14 1 9.6183 39.9498 0 0 0 0
28 14 2 10.5104 41.3215 0 0 0 0
29 15 1 12.7449 16.812 0 0 0 0
30 15 2 14.4038 17.1312 0 0 0 0
31 16 1 13.89 67.6479 0 0 0 0
32 16 2 14.9207 68.8647 0 0 0 0
33 17 1 126.808 26.864 0 0 0 0
34 17 2 128.296 26.1888 0 0 0 0
35 18 1 120.311 15.3492 0 0 0 0
36 18 2 121.756 14.7032 0 0 0 0
37 19 1 19.2927 12.8599 0 0 0 0
38 19 2 18.469 11.5185 0 0 0 0
39 20 1 145.583 55.7407 0 0 0 0
40 20 2 144.703 54.3803 0 0 0 0
41 21 1 129.316 32.677 0 0 0 0
42 21 2 130.693 33.498 0 0 0 0
43 22 1 155.179 11.0603 0 0 0 0
44 22 2 153.755 11.7254 0 0 0 0
45 23 1 160.813 67.2658 0 1 0 0
46 23 2 160.066 68.6249 0 1 0 0
47 24 1 152.823 18.6099 0 0 0 0
48 24 2 151.135 18.5745 0 0 0 0
49 25 1 2.5244 23.4737 0 0 0 0
50 25 2 1.7135 22.0967 0 0 0 0
51 26 1 135.489 32.7813 0 0 0 0
52 26 2 136.892 31.9502 0 0 0 0
53 27 1 145.604 62.6583 0 0 0 0
54 27 2 145.263 64.1593 0 0 0 0
55 28 1 18.4534 70.1398 0 0 0 0
56 28 2 18.0591 71.6708 0 0 0 0
57 29 1 158.217 72.7236 0 0 0 0
58 29 2 159.753 73.219 0 0 0 0
59 30 1 114.888 4.2929 0 0 0 0
60 30 2 115.947 3.09917 0 0 0 0
61 31 1 135.823 34.9261 0 0 0 0
62 31 2 137.43 35.1177 0 0 0 0
63 32 1 142.934 16.9033 0 0 0 0
64 32 2 143.544 15.3883 0 0 0 0
65 33 1 143.145 7.88406 0 0 0 0
66 33 2 143.387 6.2541 0 0 0 0
67 34 1 161.76 29.3713 0 0 0 0
68 34 2 161.567 31.0103 0 0 0 0
69 35 1 5.4488 60.2656 0 0 0 0
70 35 2 4.5061 61.5715 0 0 0 0
71 36 1 1.5401 10.6081 0 0 0 0
72 36 2 3.1648 10.5952 0 0 0 0
73 37 1 19.5847 33.0281 0 1 0 0
74 37 2 19.5888 31.4395 0 1 0 0
75 38 1 147.362 12.4296 0 0 0 0
76 38 2 148.657 13.4518 0 0 0 0
77 39 1 151.855 1.57508 0 1 0 0
78 39 2 151.812 3.23097 0 1 0 0
79 40 1 8.9225 68.7276 0 0 0 0
80 40 2 9.0234 70.3264 0 0 0 0
81 41 1 150.97 17.0938 0 0 0 0
82 41 2 149.849 18.3095 0 0 0 0
83 42 1 3.5098 37.2574 0 0 0 0
84 42 2 3.5056 38.8697 0 0 0 0
85 43 1 10.5343 30.8217 0 1 0 0
86 43 2 8.9133 31.195 0 1 0 0
87 44 1 6.1067 29.3788 0 1 0 0
88 44 2 6.5454 30.8939 0 1 0 0
89 45 1 148.235 67.1064 0 0 0 0
90 45 2 148.168 65.4471 0 0 0 0
91 46 1 6.6501 58.9013 0 0 0 0
92 46 2 5.0745 58.4234 0 0 0 0
93 47 1 10.8537 16.9135 0 0 0 0
94 47 2 11.781 18.2602 0 0 0 0
95 48 1 138.601 14.8082 0 0 0 0
96 48 2 138.136 13.2331 0 0 0 0
97 49 1 144.211 57.4985 0 0 0 0
98 49 2 143.444 58.9049 0 0 0 0
99 50 1 37.0904 52.7462 0 0 0 0
100 50 2 38.4214 53.7548 0 0 0 0
101 51 1 4.3636 64.7839 0 0 0 0
102 51 2 5.0416 66.3133 0 0 0 0
103 52 1 153.715 21.5693 0 1 0 0
104 52 2 153.789 23.113 0 1 0 0
105 53 1 139.365 51.4274 0 0 0 0
106 53 2 140.951 51.89 0 0 0 0
107 54 1 143.136 18.8105 0 0 0 0
108 54 2 141.911 19.908 0 0 0 0
109 55 1 23.1324 41.8582 0 1 0 0
110 55 2 23.1574 43.4421 0 1 0 0
111 56 1 151.494 65.3198 0 1 0 0
112 56 2 152.609 64.0775 0 1 0 0
113 57 1 28.4664 68.3481 0 0 0 0
114 57 2 26.8334 68.2351 0 0 0 0
115 58 1 6.0055 4.27273 0 0 0 0
116 58 2 6.5364 5.78785 0 0 0 0
117 59 1 26.8474 1.49101 0 0 0 0
118 59 2 25.2514 1.18978 0 0 0 0
119 60 1 162.148 43.6501 0 1 0 0
120 60 2 160.668 44.3117 0 1 0 0
121 61 1 156.484 65.1746 0 0 0 0
122 61 2 157.976 65.8148 0 0 0 0
123 62 1 155.072 47.6054 0 0 0 0
124 62 2 155.921 49.0417 0 0 0 0
125 63 1 4.7104 67.8485 0 0 0 0
126 63 2 6.1685 67.0618 0 0 0 0
127 64 1 13.3246 29.158 0 0 0 0
128 64 2 12.1422 30.2748 0 0 0 0
129 65 1 -0.475395 52.5281 0 0 0 0
130 65 2 1.0307 52.1296 0 0 0 0
131 66 1 30.9434 18.8452 0 0 0 0
132 66 2 32.4274 19.1297 0 0 0 0
133 67 1 28.8954 19.1578 0 0 0 0
134 67 2 29.7804 17.8596 0 0 0 0
135 68 1 157.096 57.3401 0 0 0 0
136 68 2 158.653 57.6681 0 0 0 0
137 69 1 150.467 11.1163 0 0 0 0
138 69 2 149.013 11.7926 0 0 0 0
139 70 1 16.2024 39.9263 0 0 0 0
140 70 2 16.9741 41.3614 0 0 0 0
141 71 1 24.9904 67.328 0 0 0 0
142 71 2 23.9737 65.9643 0 0 0 0
143 72 1 6.8094 55.0158 0 0 0 0
144 72 2 6.8351 53.4014 0 0 0 0
145 73 1 136.171 10.9366 0 0 0 0
146 73 2 136.927 12.2787 0 0 0 0
147 74 1 145.036 7.9815 0 0 0 0
148 74 2 146.383 8.81657 0 0 0 0
149 75 1 149.211 30.604 0 1 0 0
150 75 2 150.681 29.8613 0 1 0 0
151 76 1 34.2794 21.0135 0 0 0 0
152 76 2 33.0524 22.0813 0 0 0 0
153 77 1 15.1396 10.3388 0 0 0 0
154 77 2 16.5289 9.37043 0 0 0 0
155 78 1 159.085 54.037 0 0 0 0
156 78 2 160.551 54.5448 0 0 0 0
157 79 1 126.896 5.20755 0 0 0 0
158 79 2 128.235 4.26315 0 0 0 0
159 80 1 16.7908 51.7182 0 0 0 0
160 80 2 18.5273 51.5362 0 0 0 0
161 81 1 19.1357 29.9175 0 0 0 0
162 81 2 17.6574 29.205 0 0 0 0
163 82 1 129.045 27.4894 0 0 0 0
164 82 2 127.66 28.1683 0 0 0 0
165 83 1 138.594 42.5569 0 0 0 0
166 83 2 137.153 43.3591 0 0 0 0
167 84 1 148.128 34.676 0 0 0 0
168 84 2 147.529 36.166 0 0 0 0
169 85 1 154.673 24.3893 0 0 0 0
170 85 2 154.232 25.984 0 0 0 0
171 86 1 11.2784 71.9608 0 0 0 0
172 86 2 12.4821 73.1257 0 0 0 0
173 87 1 140.677 22.5407 0 0 0 0
174 87 2 141.047 20.9198 0 0 0 0
175 88 1 30.4794 44.8114 0 0 0 0
176 88 2 29.0694 45.5831 0 0 0 0
177 89 1 17.5848 0.623317 0 0 0 0
178 89 2 19.1313 0.269723 0 0 0 0
179 90 1 148.589 41.0566 0 1 0 0
180 90 2 148.66 42.7372 0 1 0 0
181 91 1 162.24 54.5735 0 0 0 0
182 91 2 162.399 56.1704 0 0 0 0
183 92 1 134.402 10.0351 0 0 0 0
184 92 2 134.698 11.6668 0 0 0 0
185 93 1 135.716 29.0312 0 1 0 0
186 93 2 136.451 27.6123 0 1 0 0
187 94 1 30.1154 33.2962 0 0 0 0
188 94 2 29.5924 31.7442 0 0 0 0
189 95 1 8.4575 49.6313 0 1 0 0
190 95 2 10.0272 50.2304 0 1 0 0
191 96 1 18.4001 55.2906 0 1 0 0
192 96 2 19.5208 56.4743 0 1 0 0
193 97 1 134.697 6.06487 0 0 0 0
194 97 2 135.058 7.63032 0 0 0 0
195 98 1 10.7856 36.2925 0 0 0 0
196 98 2 12.4059 36.7037 0 0 0 0
197 99 1 4.0638 57.2658 0 1 0 0
198 99 2 4.931 55.9512 0 1 0 0
199 100 1 157.666 34.0307 0 0 0 0
200 100 2 157.845 35.6346 0 0 0 0
201 101 1 159.628 10.3366 0 0 0 0
202 101 2 159.767 8.71882 0 0 0 0
203 102 1 10.911 51.6591 0 0 0 0
204 102 2 9.8908 52.9213 0 0 0 0
205 103 1 29.8864 63.776 0 0 0 0
206 103 2 30.6034 62.3496 0 0 0 0
207 104 1 13.1303 61.3281 0 1 0 0
208 104 2 13.0817 62.9504 0 1 0 0
209 105 1 32.1474 37.9902 0 1 0 0
210 105 2 33.0334 36.658 0 1 0 0
211 106 1 27.3514 25.452 0 1 0 0
212 106 2 29.0264 25.2496 0 1 0 0
213 107 1 161.021 57.2768 0 0 0 0
214 107 2 159.704 58.3087 0 0 0 0
215 108 1 161.905 47.1104 0 0 0 0
216 108 2 161.512 45.4905 0 0 0 0
217 109 1 9.8077 34.4947 0 0 0 0
218 109 2 8.5902 33.408 0 0 0 0
219 110 1 16.4364 72.2257 0 0 0 0
220 110 2 16.7723 73.7884 0 0 0 0
221 111 1 163.432 65.9428 0 0 0 0
222 111 2 162.269 64.6927 0 0 0 0
223 112 1 32.8534 59.3223 0 0 0 0
224 112 2 34.3494 60.0026 0 0 0 0
225 113 1 28.8544 62.2471 0 0 0 0
226 113 2 28.4674 60.7623 0 0 0 0
227 114 1 148.414 10.5074 0 1 0 0
228 114 2 149.633 9.38053 0 1 0 0
229 115 1 21.1193 13.8671 0 1 0 0
230 115 2 19.61 14.5243 0 1 0 0
231 116 1 161.6 63.0838 0 0 0 0
232 116 2 162.985 62.2764 0 0 0 0
233 117 1 141.348 67.9075 0 1 0 0
234 117 2 142.969 68.0019 0 1 0 0
235 118 1 26.1434 15.5881 0 0 0 0
236 118 2 26.8664 14.1934 0 0 0 0
237 119 1 156.711 2.17055 0 0 0 0
238 119 2 155.144 2.40789 0 0 0 0
239 120 1 129.876 10.8434 0 0 0 0
240 120 2 131.542 10.9304 0 0 0 0
241 121 1 30.4134 42.6253 0 0 0 0
242 121 2 29.1574 41.5002 0 0 0 0
243 122 1 156.884 6.33007 0 0 0 0
244 122 2 155.807 7.43357 0 0 0 0
245 123 1 161.048 72.3727 0 0 0 0
246 123 2 159.555 71.8055 0 0 0 0
247 124 1 17.3249 65.1689 0 1 0 0
248 124 2 18.1176 63.8181 0 1 0 0
249 125 1 116.812 32.6118 0 0 0 0
250 125 2 116.103 34.0316 0 0 0 0
251 126 1 139.455 40.7223 0 0 0 0
252 126 2 140.936 40.106 0 0 0 0
253 127 1 13.6072 33.7502 0 0 0 0
254 127 2 15.2288 33.6493 0 0 0 0
255 128 1 1.2789 32.3197 0 0 0 0
256 128 2 1.6852 33.8764 0 0 0 0
257 129 1 132.869 14.8831 0 0 0 0
258 129 2 132.483 16.5116 0 0 0 0
259 130 1 149.348 33.1738 0 0 0 0
260 130 2 150.905 33.6051 0 0 0 0
261 131 1 158.718 67.5313 0 0 0 0
262 131 2 158.848 69.1266 0 0 0 0
263 132 1 13.1676 51.5277 0 0 0 0
264 132 2 13.166 49.8828 0 0 0 0
265 133 1 28.4024 23.5719 0 1 0 0
266 133 2 26.8234 23.9573 0 1 0 0
267 134 1 16.3822 24.9878 0 0 0 0
268 134 2 15.5917 23.5705 0 0 0 0
269 135 1 144.893 19.8845 0 0 0 0
270 135 2 146.035 18.6048 0 0 0 0
271 136 1 36.3634 33.8383 0 1 0 0
272 136 2 36.1194 32.2492 0 1 0 0
273 137 1 130.007 51.7891 0 0 0 0
274 137 2 129.381 50.367 0 0 0 0
275 138 1 30.2974 38.5064 0 0 0 0
276 138 2 29.4384 37.0754 0 0 0 0
277 139 1 158.897 22.8878 0 0 0 0
278 139 2 160.452 22.4756 0 0 0 0
279 140 1 153.77 13.3588 0 0 0 0
280 140 2 154.866 14.5353 0 0 0 0
281 141 1 6.7267 45.0855 0 0 0 0
282 141 2 7.9408 45.9791 0 0 0 0
283 142 1 154.458 36.7692 0 0 0 0
284 142 2 153.437 35.5972 0 0 0 0
285 143 1 20.7162 36.6015 0 0 0 0
286 143 2 21.5032 37.8704 0 0 0 0
287 144 1 21.6213 45.8907 0 0 0 0
288 144 2 22.1582 47.4129 0 0 0 0
289 145 1 17.406 59.1211 0 0 0 0
290 145 2 16.372 57.868 0 0 0 0
291 146 1 3.1725 35.0879 0 0 0 0
292 146 2 1.5663 35.4035 0 0 0 0
293 147 1 25.8124 70.9862 0 0 0 0
294 147 2 25.4654 72.5735 0 0 0 0
295 148 1 145.401 37.9157 0 0 0 0
296 148 2 146.99 37.2558 0 0 0 0
297 149 1 22.6159 12.1895 0 0 0 0
298 149 2 22.618 13.7885 0 0 0 0
299 150 1 33.6174 3.18701 0 0 0 0
300 150 2 35.0114 2.3503 0 0 0 0
301 151 1 1.9655 48.9444 0 0 0 0
302 151 2 0.561305 48.102 0 0 0 0
303 152 1 13.4049 18.6971 0 0 0 0
304 152 2 13.6697 20.3816 0 0 0 0
305 153 1 147.949 59.4329 0 0 0 0
306 153 2 149.385 58.7664 0 0 0 0
307 154 1 153.658 60.4583 0 0 0 0
308 154 2 155.17 60.9622 0 0 0 0
309 155 1 0.479805 42.0647 0 0 0 0
310 155 2 0.755805 40.5172 0 0 0 0
311 156 1 12.7792 42.7235 0 0 0 0
312 156 2 13.5281 41.3076 0 0 0 0
313 157 1 11.5811 45.4188 0 0 0 0
314 157 2 11.5469 43.8198 0 0 0 0
315 158 1 30.3124 27.8302 0 0 0 0
316 158 2 30.3444 29.3593 0 0 0 0
317 159 1 27.9294 33.0813 0 0 0 0
318 159 2 28.1374 31.3614 0 0 0 0
319 160 1 1.4395 55.148 0 0 0 0
320 160 2 0.799705 56.5694 0 0 0 0
321 161 1 6.413 63.4639 0 0 0 0
322 161 2 5.0988 62.6261 0 0 0 0
323 162 1 16.2353 28.2465 0 1 0 0
324 162 2 14.6353 28.375 0 1 0 0
325 163 1 154.81 27.5583 0 0 0 0
326 163 2 156.489 27.3954 0 0 0 0
327 164 1 0.634205 60.8713 0 0 0 0
328 164 2 0.509705 59.3187 0 0 0 0
329 165 1 124.803 13.8477 0 0 0 0
330 165 2 123.195 14.2267 0 0 0 0
331 166 1 29.3554 59.0271 0 0 0 0
332 166 2 30.9064 59.1424 0 0 0 0
333 167 1 2.3176 65.6154 0 0 0 0
334 167 2 3.7971 66.3248 0 0 0 0
335 168 1 150.781 63.4908 0 1 0 0
336 168 2 149.892 64.8458 0 1 0 0
337 169 1 7.8381 29.6433 0 0 0 0
338 169 2 9.4449 29.6145 0 0 0 0
339 170 1 19.9277 26.6945 0 0 0 0
340 170 2 19.7194 25.1273 0 0 0 0
341 171 1 39.3344 63.6965 0 0 0 0
342 171 2 40.4984 62.4903 0 0 0 0
343 172 1 129.852 20.5856 0 1 0 0
344 172 2 128.696 21.7152 0 1 0 0
345 173 1 33.5164 18.0763 0 0 0 0
346 173 2 32.9664 16.5583 0 0 0 0
347 174 1 13.8234 45.7128 0 0 0 0
348 174 2 14.0608 47.327 0 0 0 0
349 175 1 161.68 23.419 0 1 0 0
350 175 2 162.522 24.7416 0 1 0 0
351 176 1 54.2964 70.4103 0 1 0 0
352 176 2 54.4574 68.7286 0 1 0 0
353 177 1 124.467 24.7064 0 1 0 0
354 177 2 125.111 26.1951 0 1 0 0
355 178 1 21.9713 30.0379 0 0 0 0
356 178 2 20.5188 30.6241 0 0 0 0
357 179 1 151.847 29.0115 0 0 0 0
358 179 2 153.154 28.0237 0 0 0 0
359 180 1 30.7124 16.6269 0 0 0 0
360 180 2 31.9934 17.608 0 0 0 0
361 181 1 9.447 46.4158 0 1 0 0
362 181 2 8.2803 47.4742 0 1 0 0
363 182 1 9.1211 61.945 0 0 0 0
364 182 2 8.1232 63.22 0 0 0 0
365 183 1 41.1414 22.2898 0 0 0 0
366 183 2 39.5444 22.0066 0 0 0 0
367 184 1 158.758 17.9236 0 1 0 0
368 184 2 157.966 19.3868 0 1 0 0
369 185 1 150.65 21.8202 0 1 0 0
370 185 2 149.059 21.3312 0 1 0 0
371 186 1 161.053 25.6552 0 0 0 0
372 186 2 160.263 24.3004 0 0 0 0
373 187 1 16.0208 12.4151 0 0 0 0
374 187 2 17.6202 12.5072 0 0 0 0
375 188 1 8.8692 13.5969 0 0 0 0
376 188 2 8.7658 15.2311 0 0 0 0
377 189 1 32.7934 42.3454 0 1 0 0
378 189 2 32.4844 40.7571 0 1 0 0
379 190 1 4.9919 6.30146 0 0 0 0
380 190 2 3.6616 7.27266 0 0 0 0
381 191 1 150.006 25.0048 0 0 0 0
382 191 2 149.977 23.2913 0 0 0 0
383 192 1 17.3956 61.1191 0 0 0 0
384 192 2 18.1619 62.5203 0 0 0 0
385 193 1 23.5587 64.5206 0 1 0 0
386 193 2 23.6509 62.8615 0 1 0 0
387 194 1 11.4437 4.76849 0 0 0 0
388 194 2 10.6386 3.41413 0 0 0 0
389 195 1 2.6013 20.7329 0 0 0 0
390 195 2 1.0304 21.0341 0 0 0 0
391 196 1 24.5244 61.3266 0 0 0 0
392 196 2 24.7574 59.7528 0 0 0 0
393 197 1 28.2044 8.47991 0 0 0 0
394 197 2 27.5224 6.92541 0 0 0 0
395 198 1 152.518 52.7982 0 0 0 0
396 198 2 152.696 51.156 0 0 0 0
397 199 1 20.9642 67.5211 0 0 0 0
398 199 2 21.5244 69.062 0 0 0 0
399 200 1 19.1596 64.8416 0 0 0 0
400 200 2 20.7983 64.4725 0 0 0 0
401 201 1 14.8765 5.23473 0 1 0 0
402 201 2 14.9686 3.68611 0 1 0 0
403 202 1 28.8714 30.1622 0 0 0 0
404 202 2 27.3664 29.512 0 0 0 0
405 203 1 157.173 32.1087 0 0 0 0
406 203 2 156.945 30.4206 0 0 0 0
407 204 1 145.054 42.9139 0 0 0 0
408 204 2 144.648 41.268 0 0 0 0
409 205 1 24.7114 16.8369 0 0 0 0
410 205 2 26.2234 17.298 0 0 0 0
411 206 1 163.024 7.939 0 0 0 0
412 206 2 162.198 6.60093 0 0 0 0
413 207 1 17.0791 16.0146 0 0 0 0
414 207 2 16.4849 14.5853 0 0 0 0
415 208 1 38.5324 56.0438 0 0 0 0
416 208 2 36.9164 56.3612 0 0 0 0
417 209 1 33.0444 63.3431 0 1 0 0
418 209 2 31.4194 63.3059 0 1 0 0
419 210 1 132.268 24.5358 0 0 0 0
420 210 2 133.883 24.6039 0 0 0 0
421 211 1 161.277 9.30741 0 0 0 0
422 211 2 162.894 9.59096 0 0 0 0
423 212 1 7.8988 0.584663 0 1 0 0
424 212 2 6.56072 -0.2726 0 1 0 0
425 213 1 3.7516 15.3488 0 0 0 0
426 213 2 5.0984 16.3725 0 0 0 0
427 214 1 2.6365 72.708 0 0 0 0
428 214 2 4.2168 72.5304 0 0 0 0
429 215 1 27.2054 63.2744 0 0 0 0
430 215 2 26.1804 62.0687 0 0 0 0
431 216 1 18.1934 27.6156 0 0 0 0
432 216 2 16.7519 26.8844 0 0 0 0
433 217 1 0.862905 29.494 0 1 0 0
434 217 2 1.9783 28.3601 0 1 0 0
435 218 1 28.1336 -0.3377 0 0 0 0
436 218 2 28.6484 1.1866 0 0 0 0
437 219 1 10.5338 1.85784 0 0 0 0
438 219 2 8.9539 1.66023 0 0 0 0
439 220 1 25.0794 20.0869 0 0 0 0
440 220 2 26.6284 20.7764 0 0 0 0
441 221 1 153.675 9.5479 0 0 0 0
442 221 2 152.556 8.39911 0 0 0 0
443 222 1 8.2345 41.4027 0 0 0 0
444 222 2 7.9114 42.9722 0 0 0 0
445 223 1 15.1193 8.39129 0 1 0 0
446 223 2 14.5417 6.8414 0 1 0 0
447 224 1 22.2367 24.8062 0 1 0 0
448 224 2 23.3903 23.571 0 1 0 0
449 225 1 155.636 17.9905 0 0 0 0
450 225 2 156.932 17.1281 0 0 0 0
451 226 1 14.9643 26.7634 0 0 0 0
452 226 2 13.6426 27.7358 0 0 0 0
453 227 1 35.9784 15.7685 0 0 0 0
454 227 2 35.9074 17.3847 0 0 0 0
455 228 1 20.6435 22.1254 0 0 0 0
456 228 2 21.8945 23.0924 0 0 0 0
457 229 1 19.0328 66.7769 0 0 0 0
458 229 2 17.414 66.6631 0 0 0 0
459 230 1 148.343 70.7197 0 0 0 0
460 230 2 146.775 70.2408 0 0 0 0
461 231 1 8.5263 25.0078 0 0 0 0
462 231 2 9.5478 26.3129 0 0 0 0
463 232 1 1.4336 37.1255 0 0 0 0
464 232 2 2.3011 38.3854 0 0 0 0
465 233 1 160.079 70.3212 0 0 0 0
466 233 2 161.698 70.5658 0 0 0 0
467 234 1 25.0474 23.1756 0 0 0 0
468 234 2 25.8494 24.6854 0 0 0 0
469 235 1 1.0528 44.3354 0 0 0 0
470 235 2 2.772 44.0504 0 0 0 0
471 236 1 6.1165 51.6447 0 0 0 0
472 236 2 4.7105 52.4178 0 0 0 0
473 237 1 10.6149 24.5191 0 1 0 0
474 237 2 9.2903 23.532 0 1 0 0
475 238 1 24.7974 27.4298 0 0 0 0
476 238 2 23.1949 27.5592 0 0 0 0
477 239 1 31.1744 0.220622 0 1 0 0
478 239 2 32.8304 0.257837 0 1 0 0
479 240 1 24.9484 49.2455 0 0 0 0
480 240 2 25.7694 47.8059 0 0 0 0
481 241 1 152.171 39.9416 0 0 0 0
482 241 2 151.434 41.3647 0 0 0 0
483 242 1 34.0814 37.7499 0 1 0 0
484 242 2 33.1294 39.1721 0 1 0 0
485 243 1 1.0161 6.31103 0 0 0 0
486 243 2 -0.334395 5.36481 0 0 0 0
487 244 1 9.2207 37.3407 0 0 0 0
488 244 2 8.96 35.7675 0 0 0 0
489 245 1 9.2042 56.7241 0 0 0 0
490 245 2 8.3501 55.3349 0 0 0 0
491 246 1 11.2799 -0.0195 0 1 0 0
492 246 2 12.0568 1.37753 0 1 0 0
493 247 1 152.288 6.91478 0 0 0 0
494 247 2 153.421 5.84724 0 0 0 0
495 248 1 41.1934 28.6885 0 0 0 0
496 248 2 40.6744 30.2162 0 0 0 0
497 249 1 26.2624 60.256 0 0 0 0
498 249 2 27.4224 61.4045 0 0 0 0
499 250 1 26.7234 27.3187 0 0 0 0
500 250 2 25.6774 25.9627 0 0 0 0
501 251 1 19.025 1.99968 0 0 0 0
502 251 2 18.0276 3.35057 0 0 0 0
503 252 1 30.8334 68.5287 0 0 0 0
504 252 2 29.7794 67.2878 0 0 0 0
505 253 1 15.7047 36.5135 0 1 0 0
506 253 2 15.1304 34.9612 0 1 0 0
507 254 1 23.5941 58.4361 0 0 0 0
508 254 2 23.3387 60.1198 0 0 0 0
509 255 1 28.3524 49.1281 0 0 0 0
510 255 2 26.8964 48.3004 0 0 0 0
511 256 1 161.104 16.495 0 0 0 0
512 256 2 159.426 16.4456 0 0 0 0
513 257 1 144.907 29.4649 0 0 0 0
514 257 2 145.474 30.9975 0 0 0 0
515 258 1 22.9146 67.4136 0 0 0 0
516 258 2 22.8788 68.977 0 0 0 0
517 259 1 20.458 70.1641 0 0 0 0
518 259 2 21.0125 71.6746 0 0 0 0
519 260 1 27.2874 52.2965 0 0 0 0
520 260 2 27.4254 50.645 0 0 0 0
521 261 1 17.9711 68.3085 0 0 0 0
522 261 2 19.4588 68.8575 0 0 0 0
523 262 1 38.1794 66.5441 0 0 0 0
524 262 2 39.1084 65.1974 0 0 0 0
525 263 1 2.1718 59.4279 0 0 0 0
526 263 2 3.7163 58.7439 0 0 0 0
527 264 1 51.1424 63.3848 0 0 0 0
528 264 2 49.7714 64.2376 0 0 0 0
529 265 1 25.6024 10.9028 0 0 0 0
530 265 2 26.9334 9.99776 0 0 0 0
531 266 1 37.4694 30.3587 0 0 0 0
532 266 2 38.3714 28.9603 0 0 0 0
533 267 1 4.0962 22.1165 0 0 0 0
534 267 2 4.5158 20.4826 0 0 0 0
535 268 1 6.2494 1.55042 0 1 0 0
536 268 2 7.7571 2.19418 0 1 0 0
537 269 1 21.3468 32.0294 0 0 0 0
538 269 2 21.0711 33.5372 0 0 0 0
539 270 1 150.003 6.46321 0 0 0 0
540 270 2 148.93 5.16961 0 0 0 0
541 271 1 158.137 70.7557 0 0 0 0
542 271 2 157.014 71.9061 0 0 0 0
543 272 1 158.159 59.219 0 0 0 0
544 272 2 159.484 60.1023 0 0 0 0
545 273 1 14.3091 48.8813 0 0 0 0
546 273 2 15.8946 48.868 0 0 0 0
547 274 1 142.965 3.63229 0 0 0 0
548 274 2 142.678 2.00931 0 0 0 0
549 275 1 147.165 45.8053 0 0 0 0
550 275 2 146.675 44.332 0 0 0 0
551 276 1 15.2658 70.5538 0 0 0 0
552 276 2 16.8662 70.3879 0 0 0 0
553 277 1 162.865 14.4148 0 0 0 0
554 277 2 162.654 15.9594 0 0 0 0
555 278 1 3.5078 27.8665 0 0 0 0
556 278 2 5.1032 27.9632 0 0 0 0
557 279 1 24.4094 32.1362 0 0 0 0
558 279 2 22.8777 31.6112 0 0 0 0
559 280 1 1.1604 12.6166 0 0 0 0
560 280 2 -0.462695 12.8701 0 0 0 0
561 281 1 12.7044 11.9586 0 0 0 0
562 281 2 14.3473 11.902 0 0 0 0
563 282 1 19.4287 23.5607 0 0 0 0
564 282 2 20.9837 23.8479 0 0 0 0
565 283 1 17.9211 31.6256 0 1 0 0
566 283 2 17.7962 33.2792 0 1 0 0
567 284 1 1.5068 4.58565 0 0 0 0
568 284 2 2.0781 2.93923 0 0 0 0
569 285 1 143.064 42.6723 0 0 0 0
570 285 2 143.911 44.0693 0 0 0 0
571 286 1 19.9837 57.8053 0 0 0 0
572 286 2 18.836 58.8878 0 0 0 0
573 287 1 47.3214 66.9226 0 0 0 0
574 287 2 46.8814 68.4785 0 0 0 0
575 288 1 -0.221495 17.5575 0 0 0 0
576 288 2 0.983205 16.4115 0 0 0 0
577 289 1 31.5914 48.6945 0 1 0 0
578 289 2 32.6784 49.8978 0 1 0 0
579 290 1 25.0074 54.998 0 0 0 0
580 290 2 23.9854 56.2042 0 0 0 0
581 291 1 25.6614 58.492 0 0 0 0
582 291 2 24.7664 57.2014 0 0 0 0
583 292 1 19.9313 38.4155 0 0 0 0
584 292 2 21.4131 39.1709 0 0 0 0
585 293 1 31.8404 64.777 0 1 0 0
586 293 2 33.4124 64.8892 0 1 0 0
587 294 1 40.0584 71.8518 0 1 0 0
588 294 2 38.4594 71.9981 0 1 0 0
589 295 1 18.4982 47.3378 0 0 0 0
590 295 2 16.9273 46.9645 0 0 0 0
591 296 1 29.1714 51.0081 0 0 0 0
592 296 2 30.5094 51.8346 0 0 0 0
593 297 1 6.6778 16.6134 0 0 0 0
594 297 2 8.2024 16.4937 0 0 0 0
595 298 1 7.1778 38.2037 0 0 0 0
596 298 2 8.6206 38.8478 0 0 0 0
597 299 1 14.7683 32.0406 0 0 0 0
598 299 2 16.2788 31.4592 0 0 0 0
599 300 1 152.871 24.6368 0 0 0 0
600 300 2 151.346 23.9484 0 0 0 0
601 301 1 161.378 4.28748 0 0 0 0
602 301 2 163.008 3.90481 0 0 0 0
603 302 1 3.9307 0.797489 0 0 0 0
604 302 2 2.6729 1.77125 0 0 0 0
605 303 1 0.586105 63.991 0 0 0 0
606 303 2 1.3847 62.4779 0 0 0 0
607 304 1 25.9444 50.9013 0 0 0 0
608 304 2 26.7874 49.5571 0 0 0 0
609 305 1 162.434 49.1635 0 0 0 0
610 305 2 161.057 48.4765 0 0 0 0
611 306 1 18.2348 20.0678 0 0 0 0
612 306 2 17.0521 21.1924 0 0 0 0
613 307 1 36.1374 63.2155 0 0 0 0
614 307 2 34.6644 64.0636 0 0 0 0
615 308 1 158.617 1.58605 0 0 0 0
616 308 2 157.229 0.733667 0 0 0 0
617 309 1 11.7931 15.0545 0 1 0 0
618 309 2 10.1718 15.1241 0 1 0 0
619 310 1 142.386 25.1053 0 0 0 0
620 310 2 141.361 23.8317 0 0 0 0
621 311 1 23.8332 29.1144 0 0 0 0
622 311 2 24.5294 30.5962 0 0 0 0
623 312 1 3.366 13.4717 0 0 0 0
624 312 2 2.659 11.9286 0 0 0 0
625 313 1 35.7014 41.5253 0 0 0 0
626 313 2 36.6654 42.8735 0 0 0 0
627 314 1 6.1394 21.5461 0 0 0 0
628 314 2 7.726 21.3674 0 0 0 0
629 315 1 161.847 68.8818 0 1 0 0
630 315 2 162.453 67.2903 0 1 0 0
631 316 1 37.7354 32.2254 0 1 0 0
632 316 2 37.8514 33.8251 0 1 0 0
633 317 1 20.7009 15.9748 0 1 0 0
634 317 2 22.1364 15.2055 0 1 0 0
635 318 1 25.3324 63.4068 0 1 0 0
636 318 2 25.1104 65.0157 0 1 0 0
637 319 1 7.9335 22.8973 0 0 0 0
638 319 2 8.8522 21.5338 0 0 0 0
639 320 1 13.0556 5.86953 0 0 0 0
640 320 2 11.696 6.79426 0 0 0 0
641 321 1 19.4761 3.85145 0 0 0 0
642 321 2 18.9793 5.22519 0 0 0 0
643 322 1 43.1274 21.3327 0 0 0 0
644 322 2 44.3654 22.3779 0 0 0 0
645 323 1 45.2514 48.5732 0 0 0 0
646 323 2 45.7414 50.0786 0 0 0 0
647 324 1 159.386 4.23802 0 1 0 0
648 324 2 158.196 3.06961 0 1 0 0
649 325 1 160.718 51.5323 0 1 0 0
650 325 2 160.578 53.2028 0 1 0 0
651 326 1 157.121 24.0306 0 0 0 0
652 326 2 157.279 22.4706 0 0 0 0
653 327 1 23.7251 18.6529 0 0 0 0
654 327 2 25.3344 18.3592 0 0 0 0
655 328 1 10.9539 28.991 0 0 0 0
656 328 2 10.6175 27.4974 0 0 0 0
657 329 1 157.526 40.1514 0 0 0 0
658 329 2 156.215 41.0985 0 0 0 0
659 330 1 20.3671 73.1489 0 1 0 0
660 330 2 19.5319 71.6562 0 1 0 0
661 331 1 29.1804 35.1095 0 0 0 0
662 331 2 27.7244 34.5225 0 0 0 0
663 332 1 23.7578 51.1191 0 0 0 0
664 332 2 23.1518 52.6165 0 0 0 0
665 333 1 7.4649 60.6152 0 0 0 0
666 333 2 6.2229 61.7379 0 0 0 0
667 334 1 4.8398 36.0483 0 0 0 0
668 334 2 6.1015 36.985 0 0 0 0
669 335 1 31.9924 15.2246 0 0 0 0
670 335 2 30.3814 14.8035 0 0 0 0
671 336 1 11.1429 56.3523 0 0 0 0
672 336 2 12.2359 55.2183 0 0 0 0
673 337 1 137.564 21.9119 0 0 0 0
674 337 2 136.407 20.7922 0 0 0 0
675 338 1 4.7041 32.7788 0 0 0 0
676 338 2 4.7976 34.4713 0 0 0 0
677 339 1 16.9273 7.92992 0 0 0 0
678 339 2 15.9407 6.57459 0 0 0 0
679 340 1 39.3464 31.0892 0 0 0 0
680 340 2 39.4864 29.4594 0 0 0 0
681 341 1 37.6434 69.6586 0 0 0 0
682 341 2 38.8614 70.746 0 0 0 0
683 342 1 13.6276 1.64421 0 0 0 0
684 342 2 14.7865 0.387417 0 0 0 0
685 343 1 14.5592 43.922 0 0 0 0
686 343 2 12.926 44.3201 0 0 0 0
687 344 1 11.3581 53.9706 0 0 0 0
688 344 2 9.9628 54.6604 0 0 0 0
689 345 1 26.4474 5.34826 0 0 0 0
690 345 2 28.0974 5.56931 0 0 0 0
691 346 1 37.3664 61.3221 0 0 0 0
692 346 2 37.7254 62.8582 0 0 0 0
693 347 1 14.9954 50.5505 0 0 0 0
694 347 2 16.5826 50.2285 0 0 0 0
695 348 1 26.8724 35.8352 0 0 0 0
696 348 2 28.1854 36.7781 0 0 0 0
697 349 1 156.733 36.8396 0 0 0 0
698 349 2 155.444 37.9147 0 0 0 0
699 350 1 148.273 25.776 0 0 0 0
700 350 2 149.115 27.1508 0 0 0 0
701 351 1 44.0384 59.6855 0 0 0 0
702 351 2 43.2414 61.1146 0 0 0 0
703 352 1 7.9016 66.8583 0 0 0 0
704 352 2 9.4679 66.9585 0 0 0 0
705 353 1 1.0403 19.1148 0 0 0 0
706 353 2 1.6978 17.6394 0 0 0 0
707 354 1 12.2095 3.01442 0 0 0 0
708 354 2 13.4709 4.06963 0 0 0 0
709 355 1 6.4369 70.4334 0 1 0 0
710 355 2 5.3451 69.2999 0 1 0 0
711 356 1 36.8844 18.5374 0 0 0 0
712 356 2 38.3174 19.1524 0 0 0 0
713 357 1 15.5597 20.6948 0 0 0 0
714 357 2 14.2609 21.6166 0 0 0 0
715 358 1 15.0718 42.078 0 0 0 0
716 358 2 14.5863 40.4459 0 0 0 0
717 359 1 161.395 -0.0029 0 0 0 0
718 359 2 159.845 0.581368 0 0 0 0
719 360 1 27.4894 72.2683 0 1 0 0
720 360 2 28.9984 71.5115 0 1 0 0
721 361 1 23.4727 6.65831 0 0 0 0
722 361 2 22.0459 6.20114 0 0 0 0
723 362 1 19.3261 10.191 0 0 0 0
724 362 2 20.9934 10.0886 0 0 0 0
725 363 1 25.7524 29.2036 0 0 0 0
726 363 2 25.6154 30.9025 0 0 0 0
727 364 1 22.761 16.6285 0 0 0 0
728 364 2 21.9696 18.0931 0 0 0 0
729 365 1 28.3464 12.7946 0 0 0 0
730 365 2 29.8814 13.3908 0 0 0 0
731 366 1 20.8716 11.8664 0 0 0 0
732 366 2 22.143 10.6355 0 0 0 0
733 367 1 22.9213 33.3583 0 0 0 0
734 367 2 23.4475 34.942 0 0 0 0
735 368 1 42.4504 27.1801 0 0 0 0
736 368 2 42.0624 25.6725 0 0 0 0
737 369 1 5.5242 26.314 0 0 0 0
738 369 2 3.9557 25.8183 0 0 0 0
739 370 1 148.511 53.9056 0 0 0 0
740 370 2 147.042 54.5287 0 0 0 0
741 371 1 6.4255 40.7988 0 0 0 0
742 371 2 7.5916 39.6513 0 0 0 0
743 372 1 156.752 11.9243 0 0 0 0
744 372 2 158.078 10.8997 0 0 0 0
745 373 1 155.51 71.3356 0 0 0 0
746 373 2 156.614 70.1873 0 0 0 0
747 374 1 27.6374 44.779 0 0 0 0
748 374 2 29.0764 44.1615 0 0 0 0
749 375 1 19.6081 52.6478 0 0 0 0
750 375 2 20.7766 51.4888 0 0 0 0
751 376 1 116.637 23.2859 0 0 0 0
752 376 2 118.288 23.4326 0 0 0 0
753 377 1 17.5269 45.5512 0 0 0 0
754 377 2 18.0436 44.0863 0 0 0 0
755 378 1 8.1641 71.6393 0 0 0 0
756 378 2 6.5725 71.906 0 0 0 0
757 379 1 13.3561 71.4521 0 0 0 0
758 379 2 14.8799 72.277 0 0 0 0
759 380 1 26.2614 56.6101 0 0 0 0
760 380 2 26.7774 55.0594 0 0 0 0
761 381 1 12.1251 9.40536 0 0 0 0
762 381 2 13.3215 10.4616 0 0 0 0
763 382 1 21.8786 -0.0007 0 1 0 0
764 382 2 20.5379 0.957063 0 1 0 0
765 383 1 41.4854 40.4148 0 0 0 0
766 383 2 40.6464 38.9756 0 0 0 0
767 384 1 28.7464 14.8396 0 0 0 0
768 384 2 27.5134 15.9486 0 0 0 0
769 385 1 28.2684 64.983 0 1 0 0
770 385 2 28.4924 66.656 0 1 0 0
771 386 1 36.9854 0.965193 0 0 0 0
772 386 2 35.3974 1.16159 0 0 0 0
773 387 1 37.5074 35.5457 0 0 0 0
774 387 2 38.8024 34.623 0 0 0 0
775 388 1 38.0664 27.2688 0 0 0 0
776 388 2 39.4974 28.1396 0 0 0 0
777 389 1 4.1596 48.4761 0 0 0 0
778 389 2 4.2965 46.7713 0 0 0 0
779 390 1 1.8857 69.8341 0 0 0 0
780 390 2 1.4628 71.3746 0 0 0 0
781 391 1 32.1804 54.4578 0 0 0 0
782 391 2 33.2204 55.6454 0 0 0 0
783 392 1 144.515 51.4209 0 0 0 0
784 392 2 144.221 53.0532 0 0 0 0
785 393 1 9.2768 65.4971 0 0 0 0
786 393 2 9.3238 63.8508 0 0 0 0
787 394 1 21.4744 2.31527 0 0 0 0
788 394 2 21.2319 3.95776 0 0 0 0
789 395 1 37.1174 54.6578 0 0 0 0
790 395 2 35.8194 55.7035 0 0 0 0
791 396 1 10.4731 69.9167 0 0 0 0
792 396 2 12.1329 70.3363 0 0 0 0
793 397 1 17.4242 48.8833 0 0 0 0
794 397 2 19.019 48.9449 0 0 0 0
795 398 1 2.1665 53.378 0 0 0 0
796 398 2 0.621005 53.7791 0 0 0 0
797 399 1 18.7383 21.948 0 0 0 0
798 399 2 19.6853 20.646 0 0 0 0
799 400 1 35.8594 66.4869 0 0 0 0
800 400 2 34.5414 65.5007 0 0 0 0
801 401 1 25.1674 52.5879 0 0 0 0
802 401 2 26.1794 53.8992 0 0 0 0
803 402 1 36.4824 28.7787 0 0 0 0
804 402 2 35.0264 28.1028 0 0 0 0
805 403 1 9.6132 73.0338 0 0 0 0
806 403 2 9.7866 71.3959 0 0 0 0
807 404 1 150.346 57.4136 0 0 0 0
808 404 2 151.824 58.0272 0 0 0 0
809 405 1 34.7494 29.6933 0 1 0 0
810 405 2 33.3984 30.5477 0 1 0 0
811 406 1 16.0614 67.6119 0 0 0 0
812 406 2 16.4601 69.2938 0 0 0 0
813 407 1 159.855 12.2489 0 0 0 0
814 407 2 160.971 11.0383 0 0 0 0
815 408 1 150.47 45.4019 0 1 0 0
816 408 2 148.745 45.8622 0 1 0 0
817 409 1 39.8474 19.3286 0 0 0 0
818 409 2 39.8974 17.6681 0 0 0 0
819 410 1 41.4294 67.9431 0 0 0 0
820 410 2 42.3874 66.7442 0 0 0 0
821 411 1 23.7976 4.23788 0 0 0 0
822 411 2 24.5744 5.66353 0 0 0 0
823 412 1 8.698 58.7531 0 0 0 0
824 412 2 7.6028 57.6264 0 0 0 0
825 413 1 10.9344 64.4887 0 0 0 0
826 413 2 10.3133 63.0448 0 0 0 0
827 414 1 28.7254 2.90709 0 0 0 0
828 414 2 30.0244 3.74385 0 0 0 0
829 415 1 21.071 62.752 0 0 0 0
830 415 2 22.2658 63.8 0 0 0 0
831 416 1 32.9844 68.4151 0 1 0 0
832 416 2 34.5424 68.3538 0 1 0 0
833 417 1 149.912 28.5554 0 1 0 0
834 417 2 148.385 29.0842 0 1 0 0
835 418 1 30.4584 71.8444 0 1 0 0
836 418 2 30.7243 73.3768 0 1 0 0
837 419 1 30.6404 24.018 0 0 0 0
838 419 2 29.8654 22.6798 0 0 0 0
839 420 1 26.9534 37.9467 0 0 0 0
840 420 2 28.5634 38.0566 0 0 0 0
841 421 1 30.7254 40.6801 0 0 0 0
842 421 2 31.8664 39.5003 0 0 0 0
843 422 1 31.3614 31.8029 0 0 0 0
844 422 2 30.2354 30.7056 0 0 0 0
845 423 1 45.5104 64.311 0 0 0 0
846 423 2 46.6194 65.4707 0 0 0 0
847 424 1 11.687 33.7289 0 0 0 0
848 424 2 12.3135 35.3165 0 0 0 0
849 425 1 24.8604 35.9405 0 0 0 0
850 425 2 25.5774 37.376 0 0 0 0
851 426 1 28.2474 42.8018 0 0 0 0
852 426 2 27.7604 41.2858 0 0 0 0
853 427 1 155.297 39.4053 0 0 0 0
854 427 2 156.703 38.5158 0 0 0 0
855 428 1 42.5384 51.5736 0 0 0 0
856 428 2 42.2254 53.1756 0 0 0 0
857 429 1 139.586 36.8807 0 0 0 0
858 429 2 141.15 36.9325 0 0 0 0
859 430 1 23.8618 44.7981 0 0 0 0
860 430 2 22.2514 44.4277 0 0 0 0
861 431 1 19.6277 43.2993 0 0 0 0
862 431 2 19.6689 41.6805 0 0 0 0
863 432 1 16.5878 34.3792 0 0 0 0
864 432 2 16.4091 32.7643 0 0 0 0
865 433 1 18.2662 25.6206 0 0 0 0
866 433 2 17.7865 24.0221 0 0 0 0
867 434 1 20.831 7.33592 0 1 0 0
868 434 2 19.4785 6.37284 0 1 0 0
869 435 1 39.2574 37.8588 0 0 0 0
870 435 2 40.2404 36.5776 0 0 0 0
871 436 1 34.5444 31.7204 0 1 0 0
872 436 2 35.9414 30.9057 0 1 0 0
873 437 1 28.8174 39.8643 0 0 0 0
874 437 2 27.2634 39.437 0 0 0 0
875 438 1 12.9003 39.8368 0 0 0 0
876 438 2 12.0781 41.3174 0 0 0 0
877 439 1 12.7724 64.4664 0 0 0 0
878 439 2 14.2942 64.6229 0 0 0 0
879 440 1 30.0924 65.6246 0 0 0 0
880 440 2 31.2684 66.8085 0 0 0 0
881 441 1 16.995 10.8566 0 0 0 0
882 441 2 17.8376 9.42591 0 0 0 0
883 442 1 0.702005 2.42349 0 1 0 0
884 442 2 1.7295 1.16862 0 1 0 0
885 443 1 144.082 24.1234 0 0 0 0
886 443 2 145.738 23.8229 0 0 0 0
887 444 1 17.9324 6.38254 0 0 0 0
888 444 2 17.7054 4.80609 0 0 0 0
889 445 1 13.1466 7.77408 0 1 0 0
890 445 2 13.8046 9.2498 0 1 0 0
891 446 1 160.494 2.43397 0 0 0 0
892 446 2 162.065 2.93548 0 0 0 0
893 447 1 23.9127 71.758 0 0 0 0
894 447 2 23.4363 73.2709 0 0 0 0