ITEM: TIMESTEP
0
ITEM: NUMBER OF ATOMS
4800
ITEM: BOX BOUNDS xy xz yz pp pp pp
0.928718 98.6207 -0.104406
-0.893255 100.913 0
-0.5 0.5 0
ITEM: ATOMS id mol type c_diam x y z 
2001 1001 1 2 44.6218 -0.777932 0 
2 1 2 1.27511 4.66408 -0.275514 0 
3 2 1 2 2.23918 0.152792 0 
4 2 2 1.27511 1.44075 0.713574 0 
5 3 1 2 3.91842 1.13373 0 
6 3 2 1.27511 4.62431 1.76137 0 
7 4 1 2 2.25715 2.14605 0 
8 4 2 1.27511 1.50453 2.80382 0 
9 5 1 2 3.96803 3.23164 0 
10 5 2 1.27511 4.75222 3.80365 0 
11 6 1 2 2.20811 4.1878 0 
12 6 2 1.27511 1.45185 4.77135 0 
13 7 1 2 3.90042 5.16605 0 
14 7 2 1.27511 4.6847 5.74509 0 
15 8 1 2 2.19747 6.2272 0 
16 8 2 1.27511 1.43213 6.83927 0 
17 9 1 2 3.86337 7.25775 0 
18 9 2 1.27511 4.61053 7.89429 0 
19 10 1 2 2.16594 8.25513 0 
20 10 2 1.27511 1.42175 8.89782 0 
21 11 1 2 3.83855 9.3442 0 
22 11 2 1.27511 4.63268 9.9036 0 
23 12 1 2 2.16238 10.3514 0 
24 12 2 1.27511 1.38074 10.9626 0 
25 13 1 2 3.87805 11.3479 0 
26 13 2 1.27511 4.66254 11.9181 0 
27 14 1 2 2.16947 12.4439 0 
28 14 2 1.27511 1.41188 13.0226 0 
29 15 1 2 3.86763 13.3765 0 
30 15 2 1.27511 4.66431 13.9388 0 
31 16 1 2 2.20215 14.4394 0 
32 16 2 1.27511 1.40852 15.0478 0 
33 17 1 2 3.8287 15.3839 0 
34 17 2 1.27511 4.63383 15.9636 0 
35 18 1 2 2.16107 16.4372 0 
36 18 2 1.27511 1.39786 17.0488 0 
37 19 1 2 3.85258 17.4403 0 
38 19 2 1.27511 4.59072 18.0402 0 
39 20 1 2 2.20095 18.4647 0 
40 20 2 1.27511 1.4285 19.0919 0 
41 21 1 2 3.84671 19.4742 0 
42 21 2 1.27511 4.63963 20.0521 0 
43 22 1 2 2.15409 20.5351 0 
44 22 2 1.27511 1.4258 21.1642 0 
45 23 1 2 3.87799 21.5412 0 
46 23 2 1.27511 4.65296 22.1552 0 
47 24 1 2 2.26038 22.544 0 
48 24 2 1.27511 1.45723 23.1649 0 
49 25 1 2 3.90486 23.589 0 
50 25 2 1.27511 4.67062 24.2173 0 
2242 1121 2 1.27511 49.2719 20.264 0 
202 101 2 1.27511 8.72569 -0.296562 0 
203 102 1 2 6.31723 0.152073 0 
204 102 2 1.27511 5.50046 0.724084 0 
205 103 1 2 7.97957 1.1739 0 
206 103 2 1.27511 8.77732 1.73396 0 
207 104 1 2 6.29592 2.21251 0 
208 104 2 1.27511 5.48896 2.76494 0 
209 105 1 2 7.95056 3.20594 0 
210 105 2 1.27511 8.7863 3.7076 0 
211 106 1 2 6.3381 4.18777 0 
212 106 2 1.27511 5.59094 4.85377 0 
213 107 1 2 8.01098 5.21301 0 
214 107 2 1.27511 8.78989 5.79523 0 
215 108 1 2 6.27918 6.25099 0 
216 108 2 1.27511 5.47301 6.84301 0 
217 109 1 2 8.05679 7.24118 0 
218 109 2 1.27511 8.79802 7.8824 0 
219 110 1 2 6.25571 8.29594 0 
220 110 2 1.27511 5.43018 8.83843 0 
221 111 1 2 7.9719 9.26639 0 
222 111 2 1.27511 8.70779 9.91285 0 
223 112 1 2 6.2711 10.3072 0 
224 112 2 1.27511 5.48522 10.872 0 
225 113 1 2 7.97812 11.399 0 
226 113 2 1.27511 8.73588 11.9864 0 
227 114 1 2 6.23832 12.3459 0 
228 114 2 1.27511 5.45707 12.9305 0 
229 115 1 2 7.9748 13.3921 0 
230 115 2 1.27511 8.77521 13.9941 0 
231 116 1 2 6.24488 14.3598 0 
232 116 2 1.27511 5.43123 14.9356 0 
233 117 1 2 7.90529 15.3881 0 
234 117 2 1.27511 8.6572 16.0035 0 
235 118 1 2 6.2511 16.376 0 
236 118 2 1.27511 5.46532 16.9832 0 
237 119 1 2 7.968 17.4125 0 
238 119 2 1.27511 8.73092 18.0431 0 
239 120 1 2 6.23079 18.392 0 
240 120 2 1.27511 5.46197 19.0283 0 
241 121 1 2 7.88677 19.475 0 
242 121 2 1.27511 8.68293 20.0801 0 
243 122 1 2 6.20393 20.44 0 
244 122 2 1.27511 5.45613 21.1076 0 
245 123 1 2 7.92173 21.5277 0 
246 123 2 1.27511 8.70304 22.135 0 
247 124 1 2 6.24783 22.5446 0 
248 124 2 1.27511 5.5297 23.188 0 
249 125 1 2 7.88086 23.5795 0 
250 125 2 1.27511 8.69144 24.1495 0 
2247 1124 1 2 46.8453 22.6088 0 
402 201 2 1.27511 12.8276 -0.373055 0 
403 202 1 2 10.3335 0.100936 0 
404 202 2 1.27511 9.58172 0.744425 0 
405 203 1 2 12.0213 1.09072 0 
406 203 2 1.27511 12.7821 1.71793 0 
407 204 1 2 10.3985 2.15759 0 
408 204 2 1.27511 9.57728 2.70596 0 
409 205 1 2 12.0886 3.16248 0 
410 205 2 1.27511 12.8721 3.73946 0 
411 206 1 2 10.3645 4.14844 0 
412 206 2 1.27511 9.64521 4.80237 0 
413 207 1 2 12.1032 5.18785 0 
414 207 2 1.27511 12.8421 5.85829 0 
415 208 1 2 10.4359 6.3349 0 
416 208 2 1.27511 9.63992 6.87701 0 
417 209 1 2 12.0636 7.27723 0 
418 209 2 1.27511 12.8629 7.89428 0 
419 210 1 2 10.3553 8.34258 0 
420 210 2 1.27511 9.6369 8.97971 0 
421 211 1 2 12.0792 9.31425 0 
422 211 2 1.27511 12.8126 9.9271 0 
423 212 1 2 10.3354 10.366 0 
424 212 2 1.27511 9.49734 10.8698 0 
425 213 1 2 12.0295 11.3506 0 
426 213 2 1.27511 12.7972 11.9416 0 
427 214 1 2 10.3359 12.3193 0 
428 214 2 1.27511 9.58111 13.0011 0 
429 215 1 2 11.991 13.4133 0 
430 215 2 1.27511 12.7745 13.9581 0 
431 216 1 2 10.3169 14.4616 0 
432 216 2 1.27511 9.57486 15.0879 0 
433 217 1 2 11.9899 15.4593 0 
434 217 2 1.27511 12.7773 16.0634 0 
435 218 1 2 10.3577 16.4973 0 
436 218 2 1.27511 9.527 17.0076 0 
437 219 1 2 12.0264 17.5045 0 
438 219 2 1.27511 12.8018 18.1088 0 
439 220 1 2 10.2845 18.4731 0 
440 220 2 1.27511 9.53471 19.0789 0 
441 221 1 2 11.9757 19.5378 0 
442 221 2 1.27511 12.7439 20.1447 0 
443 222 1 2 10.3149 20.5176 0 
444 222 2 1.27511 9.5568 21.1481 0 
445 223 1 2 11.9545 21.5522 0 
446 223 2 1.27511 12.6783 22.2317 0 
447 224 1 2 10.2725 22.5733 0 
448 224 2 1.27511 9.48628 23.1689 0 
449 225 1 2 11.9553 23.661 0 
450 225 2 1.27511 12.7925 24.1773 0 
2248 1124 2 1.27511 46.0368 23.211 0 
602 301 2 1.27511 16.9056 -0.286479 0 
603 302 1 2 14.4211 0.0609446 0 
604 302 2 1.27511 13.624 0.623027 0 
605 303 1 2 16.1415 1.09714 0 
606 303 2 1.27511 16.8722 1.70347 0 
607 304 1 2 14.4259 2.05495 0 
608 304 2 1.27511 13.6426 2.68737 0 
609 305 1 2 16.0911 3.21769 0 
610 305 2 1.27511 16.8676 3.81308 0 
611 306 1 2 14.4222 4.11355 0 
612 306 2 1.27511 13.6709 4.80574 0 
613 307 1 2 16.1011 5.24216 0 
614 307 2 1.27511 16.8703 5.88012 0 
615 308 1 2 14.4115 6.22863 0 
616 308 2 1.27511 13.6796 6.84374 0 
617 309 1 2 16.059 7.254 0 
618 309 2 1.27511 16.8562 7.85727 0 
619 310 1 2 14.3967 8.3016 0 
620 310 2 1.27511 13.6453 8.88446 0 
621 311 1 2 16.0999 9.31455 0 
622 311 2 1.27511 16.8808 9.90152 0 
623 312 1 2 14.4159 10.3571 0 
624 312 2 1.27511 13.5948 10.9106 0 
625 313 1 2 16.0724 11.3823 0 
626 313 2 1.27511 16.8379 12.0041 0 
627 314 1 2 14.3987 12.3571 0 
628 314 2 1.27511 13.6338 12.9805 0 
629 315 1 2 16.0506 13.4759 0 
630 315 2 1.27511 16.8735 13.9999 0 
631 316 1 2 14.3645 14.474 0 
632 316 2 1.27511 13.5387 15.003 0 
633 317 1 2 16.035 15.4506 0 
634 317 2 1.27511 16.8401 16.0119 0 
635 318 1 2 14.3864 16.4616 0 
636 318 2 1.27511 13.6414 17.0414 0 
637 319 1 2 16.0318 17.4461 0 
638 319 2 1.27511 16.8028 18.0275 0 
639 320 1 2 14.3699 18.5123 0 
640 320 2 1.27511 13.5932 19.1795 0 
641 321 1 2 16.0961 19.5156 0 
642 321 2 1.27511 16.86 20.1353 0 
643 322 1 2 14.3978 20.5464 0 
644 322 2 1.27511 13.6206 21.1758 0 
645 323 1 2 16.1191 21.5377 0 
646 323 2 1.27511 16.8851 22.1858 0 
647 324 1 2 14.3731 22.5563 0 
648 324 2 1.27511 13.6379 23.1867 0 
649 325 1 2 16.0669 23.5673 0 
650 325 2 1.27511 16.8686 24.1048 0 
2249 1125 1 2 48.5183 23.6537 0 
802 401 2 1.27511 21.0531 -0.207322 0 
803 402 1 2 18.5319 0.124449 0 
804 402 2 1.27511 17.7561 0.705457 0 
805 403 1 2 20.1564 1.13515 0 
806 403 2 1.27511 20.9265 1.73813 0 
807 404 1 2 18.4614 2.16623 0 
808 404 2 1.27511 17.6716 2.74139 0 
809 405 1 2 20.1489 3.14265 0 
810 405 2 1.27511 20.8507 3.83356 0 
811 406 1 2 18.4653 4.16916 0 
812 406 2 1.27511 17.7514 4.84195 0 
813 407 1 2 20.1097 5.26561 0 
814 407 2 1.27511 20.9194 5.82149 0 
815 408 1 2 18.4768 6.27859 0 
816 408 2 1.27511 17.7648 6.9423 0 
817 409 1 2 20.2246 7.27871 0 
818 409 2 1.27511 20.9735 7.90808 0 
819 410 1 2 18.4931 8.36336 0 
820 410 2 1.27511 17.6572 8.87129 0 
821 411 1 2 20.183 9.37909 0 
822 411 2 1.27511 20.966 9.94605 0 
823 412 1 2 18.4484 10.3596 0 
824 412 2 1.27511 17.6607 10.9949 0 
825 413 1 2 20.1445 11.3649 0 
826 413 2 1.27511 20.9059 11.9612 0 
827 414 1 2 18.4972 12.4248 0 
828 414 2 1.27511 17.6723 12.9781 0 
829 415 1 2 20.2088 13.4881 0 
830 415 2 1.27511 20.9891 14.0636 0 
831 416 1 2 18.5094 14.4238 0 
832 416 2 1.27511 17.7156 15.0201 0 
833 417 1 2 20.1927 15.4998 0 
834 417 2 1.27511 20.9926 16.0532 0 
835 418 1 2 18.4228 16.466 0 
836 418 2 1.27511 17.6384 17.0466 0 
837 419 1 2 20.1377 17.4723 0 
838 419 2 1.27511 20.9294 18.0432 0 
839 420 1 2 18.4208 18.4634 0 
840 420 2 1.27511 17.6242 19.06 0 
841 421 1 2 20.1929 19.4819 0 
842 421 2 1.27511 20.8782 20.1699 0 
843 422 1 2 18.4456 20.5073 0 
844 422 2 1.27511 17.6825 21.1045 0 
845 423 1 2 20.0912 21.5344 0 
846 423 2 1.27511 20.8775 22.1301 0 
847 424 1 2 18.4359 22.4957 0 
848 424 2 1.27511 17.7786 23.2133 0 
849 425 1 2 20.1262 23.5363 0 
850 425 2 1.27511 20.852 24.1209 0 
2246 1123 2 1.27511 49.3386 22.2313 0 
1002 501 2 1.27511 25.0071 -0.189413 0 
1003 502 1 2 22.6151 0.177612 0 
1004 502 2 1.27511 21.8512 0.822082 0 
1005 503 1 2 24.2537 1.27666 0 
1006 503 2 1.27511 25.0368 1.8827 0 
1007 504 1 2 22.4991 2.24038 0 
1008 504 2 1.27511 21.7437 2.83671 0 
1009 505 1 2 24.2236 3.28267 0 
1010 505 2 1.27511 25.0435 3.8356 0 
1011 506 1 2 22.537 4.23027 0 
1012 506 2 1.27511 21.7569 4.83085 0 
1013 507 1 2 24.2401 5.24287 0 
1014 507 2 1.27511 24.9821 5.89468 0 
1015 508 1 2 22.5429 6.23695 0 
1016 508 2 1.27511 21.7486 6.86082 0 
1017 509 1 2 24.2332 7.33188 0 
1018 509 2 1.27511 24.9949 7.9305 0 
1019 510 1 2 22.5226 8.28745 0 
1020 510 2 1.27511 21.792 8.94708 0 
1021 511 1 2 24.1721 9.34198 0 
1022 511 2 1.27511 24.9556 9.92685 0 
1023 512 1 2 22.5745 10.3849 0 
1024 512 2 1.27511 21.8034 10.9622 0 
1025 513 1 2 24.2891 11.334 0 
1026 513 2 1.27511 25.0286 12.0189 0 
1027 514 1 2 22.5511 12.3962 0 
1028 514 2 1.27511 21.7824 12.9907 0 
1029 515 1 2 24.1927 13.4311 0 
1030 515 2 1.27511 25.029 13.9956 0 
1031 516 1 2 22.5598 14.4906 0 
1032 516 2 1.27511 21.8002 15.0447 0 
1033 517 1 2 24.2868 15.4803 0 
1034 517 2 1.27511 25.0034 16.1211 0 
1035 518 1 2 22.5998 16.4781 0 
1036 518 2 1.27511 21.8239 17.0866 0 
1037 519 1 2 24.21 17.5466 0 
1038 519 2 1.27511 24.9775 18.1396 0 
1039 520 1 2 22.5061 18.5338 0 
1040 520 2 1.27511 21.7308 19.1069 0 
1041 521 1 2 24.1812 19.5375 0 
1042 521 2 1.27511 25.0237 20.0973 0 
1043 522 1 2 22.4463 20.5179 0 
1044 522 2 1.27511 21.7385 21.1634 0 
1045 523 1 2 24.1782 21.5682 0 
1046 523 2 1.27511 24.9743 22.1468 0 
1047 524 1 2 22.5099 22.5998 0 
1048 524 2 1.27511 21.6854 23.1459 0 
1049 525 1 2 24.2066 23.6021 0 
1050 525 2 1.27511 25.0264 24.1615 0 
2250 1125 2 1.27511 49.3053 24.2143 0 
1202 601 2 1.27511 29.1675 -0.255495 0 
1203 602 1 2 26.6409 0.24065 0 
1204 602 2 1.27511 25.848 0.791679 0 
1205 603 1 2 28.3928 1.21382 0 
1206 603 2 1.27511 29.1546 1.83014 0 
1207 604 1 2 26.6565 2.23325 0 
1208 604 2 1.27511 25.903 2.8745 0 
1209 605 1 2 28.3444 3.2512 0 
1210 605 2 1.27511 29.0714 3.91942 0 
1211 606 1 2 26.6277 4.25329 0 
1212 606 2 1.27511 25.8487 4.8226 0 
1213 607 1 2 28.3146 5.3012 0 
1214 607 2 1.27511 29.0593 5.92594 0 
1215 608 1 2 26.539 6.23218 0 
1216 608 2 1.27511 25.8282 6.93416 0 
1217 609 1 2 28.2702 7.37238 0 
1218 609 2 1.27511 29.0624 7.91137 0 
1219 610 1 2 26.5757 8.34287 0 
1220 610 2 1.27511 25.8307 8.94068 0 
1221 611 1 2 28.2866 9.35439 0 
1222 611 2 1.27511 29.0814 9.96425 0 
1223 612 1 2 26.5955 10.3184 0 
1224 612 2 1.27511 25.8539 10.9307 0 
1225 613 1 2 28.3357 11.3562 0 
1226 613 2 1.27511 29.0751 11.9862 0 
1227 614 1 2 26.5643 12.3966 0 
1228 614 2 1.27511 25.8267 13.0172 0 
1229 615 1 2 28.3245 13.4103 0 
1230 615 2 1.27511 29.1119 14.0435 0 
1231 616 1 2 26.5971 14.382 0 
1232 616 2 1.27511 25.8585 15.0423 0 
1233 617 1 2 28.2941 15.4072 0 
1234 617 2 1.27511 29.0946 16.0242 0 
1235 618 1 2 26.5901 16.459 0 
1236 618 2 1.27511 25.8763 17.1046 0 
1237 619 1 2 28.3181 17.498 0 
1238 619 2 1.27511 28.9921 18.2008 0 
1239 620 1 2 26.6207 18.4829 0 
1240 620 2 1.27511 25.851 19.1131 0 
1241 621 1 2 28.299 19.5834 0 
1242 621 2 1.27511 29.0445 20.2012 0 
1243 622 1 2 26.5882 20.6088 0 
1244 622 2 1.27511 25.8263 21.2011 0 
1245 623 1 2 28.3099 21.578 0 
1246 623 2 1.27511 29.0622 22.2102 0 
1247 624 1 2 26.623 22.5824 0 
1248 624 2 1.27511 25.8664 23.1953 0 
1249 625 1 2 28.2783 23.5967 0 
1250 625 2 1.27511 28.9478 24.3054 0 
2244 1122 2 1.27511 46.0349 21.1557 0 
1402 701 2 1.27511 33.2327 -0.211528 0 
1403 702 1 2 30.7428 0.220332 0 
1404 702 2 1.27511 29.9423 0.812326 0 
1405 703 1 2 32.4749 1.19208 0 
1406 703 2 1.27511 33.1815 1.90136 0 
1407 704 1 2 30.7841 2.20089 0 
1408 704 2 1.27511 30.019 2.86269 0 
1409 705 1 2 32.3994 3.30699 0 
1410 705 2 1.27511 33.1657 3.91905 0 
1411 706 1 2 30.7262 4.30083 0 
1412 706 2 1.27511 29.9611 4.92558 0 
1413 707 1 2 32.3869 5.29821 0 
1414 707 2 1.27511 33.1991 5.88145 0 
1415 708 1 2 30.6662 6.28461 0 
1416 708 2 1.27511 29.9003 6.89464 0 
1417 709 1 2 32.3277 7.28195 0 
1418 709 2 1.27511 33.1632 7.87078 0 
1419 710 1 2 30.6609 8.32873 0 
1420 710 2 1.27511 29.9199 8.96636 0 
1421 711 1 2 32.404 9.33777 0 
1422 711 2 1.27511 33.1719 9.94897 0 
1423 712 1 2 30.7087 10.3656 0 
1424 712 2 1.27511 29.9249 10.9772 0 
1425 713 1 2 32.3133 11.3544 0 
1426 713 2 1.27511 33.0858 11.9511 0 
1427 714 1 2 30.691 12.4328 0 
1428 714 2 1.27511 29.8916 12.9821 0 
1429 715 1 2 32.3635 13.3916 0 
1430 715 2 1.27511 33.1545 13.9568 0 
1431 716 1 2 30.7034 14.4508 0 
1432 716 2 1.27511 29.889 15.0205 0 
1433 717 1 2 32.3663 15.3537 0 
1434 717 2 1.27511 33.0362 16.0787 0 
1435 718 1 2 30.6611 16.4816 0 
1436 718 2 1.27511 29.8407 17.0467 0 
1437 719 1 2 32.3051 17.5424 0 
1438 719 2 1.27511 33.0722 18.1686 0 
1439 720 1 2 30.5892 18.541 0 
1440 720 2 1.27511 29.8961 19.2056 0 
1441 721 1 2 32.3015 19.5917 0 
1442 721 2 1.27511 33.0627 20.2209 0 
1443 722 1 2 30.637 20.5804 0 
1444 722 2 1.27511 29.9026 21.2371 0 
1445 723 1 2 32.3222 21.6102 0 
1446 723 2 1.27511 33.1045 22.1975 0 
1447 724 1 2 30.6547 22.665 0 
1448 724 2 1.27511 29.8302 23.1988 0 
1449 725 1 2 32.3297 23.626 0 
1450 725 2 1.27511 33.1588 24.1495 0 
2245 1123 1 2 48.5383 21.6403 0 
1602 801 2 1.27511 37.3118 -0.210436 0 
1603 802 1 2 34.815 0.186927 0 
1604 802 2 1.27511 34.0403 0.824025 0 
1605 803 1 2 36.4915 1.21717 0 
1606 803 2 1.27511 37.2352 1.87408 0 
1607 804 1 2 34.8075 2.24742 0 
1608 804 2 1.27511 34.0109 2.8349 0 
1609 805 1 2 36.4498 3.28195 0 
1610 805 2 1.27511 37.2272 3.83117 0 
1611 806 1 2 34.8301 4.27851 0 
1612 806 2 1.27511 34.0744 4.88206 0 
1613 807 1 2 36.473 5.34552 0 
1614 807 2 1.27511 37.2543 5.94727 0 
1615 808 1 2 34.7496 6.31393 0 
1616 808 2 1.27511 33.9539 6.91929 0 
1617 809 1 2 36.4743 7.34531 0 
1618 809 2 1.27511 37.259 7.92708 0 
1619 810 1 2 34.8184 8.36813 0 
1620 810 2 1.27511 33.9954 8.90501 0 
1621 811 1 2 36.4636 9.36394 0 
1622 811 2 1.27511 37.2366 9.95017 0 
1623 812 1 2 34.7425 10.4004 0 
1624 812 2 1.27511 33.9324 10.9304 0 
1625 813 1 2 36.4876 11.3896 0 
1626 813 2 1.27511 37.2853 11.9424 0 
1627 814 1 2 34.7703 12.3422 0 
1628 814 2 1.27511 34.0162 12.9732 0 
1629 815 1 2 36.4037 13.4001 0 
1630 815 2 1.27511 37.1526 13.9989 0 
1631 816 1 2 34.7571 14.4474 0 
1632 816 2 1.27511 33.9553 15.0329 0 
1633 817 1 2 36.3939 15.4757 0 
1634 817 2 1.27511 37.1735 16.0235 0 
1635 818 1 2 34.6283 16.5213 0 
1636 818 2 1.27511 33.8838 17.1579 0 
1637 819 1 2 36.3924 17.5723 0 
1638 819 2 1.27511 37.1323 18.2091 0 
1639 820 1 2 34.6545 18.5846 0 
1640 820 2 1.27511 33.8469 19.1863 0 
1641 821 1 2 36.3784 19.6105 0 
1642 821 2 1.27511 37.1839 20.1618 0 
1643 822 1 2 34.636 20.608 0 
1644 822 2 1.27511 33.9271 21.2394 0 
1645 823 1 2 36.3756 21.5787 0 
1646 823 2 1.27511 37.1318 22.2073 0 
1647 824 1 2 34.7644 22.6766 0 
1648 824 2 1.27511 33.9803 23.1959 0 
1649 825 1 2 36.4651 23.6667 0 
1650 825 2 1.27511 37.2386 24.2618 0 
2243 1122 1 2 46.8482 20.6026 0 
1802 901 2 1.27511 41.3025 -0.238615 0 
1803 902 1 2 38.8185 0.268819 0 
1804 902 2 1.27511 38.0584 0.882448 0 
1805 903 1 2 40.5652 1.22037 0 
1806 903 2 1.27511 41.3399 1.80221 0 
1807 904 1 2 38.8483 2.29641 0 
1808 904 2 1.27511 38.0528 2.85487 0 
1809 905 1 2 40.5911 3.21472 0 
1810 905 2 1.27511 41.2695 3.881 0 
1811 906 1 2 38.8243 4.27741 0 
1812 906 2 1.27511 38.0571 4.88876 0 
1813 907 1 2 40.5353 5.35594 0 
1814 907 2 1.27511 41.3346 5.89606 0 
1815 908 1 2 38.8207 6.35545 0 
1816 908 2 1.27511 38.0508 6.94314 0 
1817 909 1 2 40.525 7.39021 0 
1818 909 2 1.27511 41.2861 7.9313 0 
1819 910 1 2 38.8404 8.33855 0 
1820 910 2 1.27511 38.0373 8.90655 0 
1821 911 1 2 40.5717 9.37631 0 
1822 911 2 1.27511 41.3682 9.97385 0 
1823 912 1 2 38.8396 10.3607 0 
1824 912 2 1.27511 38.1022 10.9692 0 
1825 913 1 2 40.4872 11.3689 0 
1826 913 2 1.27511 41.1951 12.0475 0 
1827 914 1 2 38.846 12.4293 0 
1828 914 2 1.27511 38.018 12.9908 0 
1829 915 1 2 40.5046 13.4768 0 
1830 915 2 1.27511 41.2214 14.0971 0 
1831 916 1 2 38.777 14.4668 0 
1832 916 2 1.27511 37.9824 15.0622 0 
1833 917 1 2 40.4286 15.5709 0 
1834 917 2 1.27511 41.2749 16.091 0 
1835 918 1 2 38.7464 16.5132 0 
1836 918 2 1.27511 38.007 17.1807 0 
1837 919 1 2 40.4572 17.4817 0 
1838 919 2 1.27511 41.1932 18.1049 0 
1839 920 1 2 38.8267 18.545 0 
1840 920 2 1.27511 38.0456 19.1301 0 
1841 921 1 2 40.4671 19.5599 0 
1842 921 2 1.27511 41.2417 20.1451 0 
1843 922 1 2 38.8394 20.6191 0 
1844 922 2 1.27511 38.0415 21.1411 0 
1845 923 1 2 40.5087 21.5741 0 
1846 923 2 1.27511 41.2577 22.229 0 
1847 924 1 2 38.7929 22.6056 0 
1848 924 2 1.27511 38.0307 23.179 0 
1849 925 1 2 40.4552 23.7061 0 
1850 925 2 1.27511 41.2131 24.2984 0 
1201 601 1 2 28.367 -0.784508 0 
2002 1001 2 1.27511 45.4248 -0.231313 0 
2003 1002 1 2 42.9022 0.192056 0 
2004 1002 2 1.27511 42.1298 0.803326 0 
2005 1003 1 2 44.6041 1.21806 0 
2006 1003 2 1.27511 45.3908 1.82384 0 
2007 1004 1 2 42.9468 2.22558 0 
2008 1004 2 1.27511 42.1594 2.76028 0 
2009 1005 1 2 44.6356 3.2517 0 
2010 1005 2 1.27511 45.4109 3.85946 0 
2011 1006 1 2 42.8925 4.20928 0 
2012 1006 2 1.27511 42.1978 4.89821 0 
2013 1007 1 2 44.5622 5.2346 0 
2014 1007 2 1.27511 45.3546 5.83887 0 
2015 1008 1 2 42.9083 6.31461 0 
2016 1008 2 1.27511 42.1215 6.93344 0 
2017 1009 1 2 44.5635 7.31634 0 
2018 1009 2 1.27511 45.365 7.88641 0 
2019 1010 1 2 42.8983 8.2899 0 
2020 1010 2 1.27511 42.1524 8.94075 0 
2021 1011 1 2 44.5505 9.36888 0 
2022 1011 2 1.27511 45.3335 9.99981 0 
2023 1012 1 2 42.8719 10.4859 0 
2024 1012 2 1.27511 42.0897 11.0859 0 
2025 1013 1 2 44.5502 11.4367 0 
2026 1013 2 1.27511 45.2918 12.0786 0 
2027 1014 1 2 42.8333 12.4416 0 
2028 1014 2 1.27511 42.0753 13.038 0 
2029 1015 1 2 44.5232 13.4802 0 
2030 1015 2 1.27511 45.263 14.1015 0 
2031 1016 1 2 42.9334 14.5161 0 
2032 1016 2 1.27511 42.0892 15.0342 0 
2033 1017 1 2 44.5874 15.5735 0 
2034 1017 2 1.27511 45.3492 16.1956 0 
2035 1018 1 2 42.846 16.5063 0 
2036 1018 2 1.27511 42.0735 17.1288 0 
2037 1019 1 2 44.5271 17.5594 0 
2038 1019 2 1.27511 45.3149 18.1422 0 
2039 1020 1 2 42.7866 18.5218 0 
2040 1020 2 1.27511 42.0176 19.1423 0 
2041 1021 1 2 44.457 19.5291 0 
2042 1021 2 1.27511 45.2262 20.1289 0 
2043 1022 1 2 42.8364 20.562 0 
2044 1022 2 1.27511 42.1189 21.2495 0 
2045 1023 1 2 44.4565 21.6161 0 
2046 1023 2 1.27511 45.1778 22.2508 0 
2047 1024 1 2 42.7847 22.6639 0 
2048 1024 2 1.27511 42.069 23.3107 0 
2049 1025 1 2 44.4539 23.6707 0 
2050 1025 2 1.27511 45.1988 24.273 0 
2241 1121 1 2 48.5825 19.5579 0 
2202 1101 2 1.27511 49.4725 -0.332942 0 
2203 1102 1 2 46.9704 0.22817 0 
2204 1102 2 1.27511 46.2316 0.887898 0 
2205 1103 1 2 48.6948 1.16804 0 
2206 1103 2 1.27511 49.4497 1.76967 0 
2207 1104 1 2 47.0201 2.28958 0 
2208 1104 2 1.27511 46.2077 2.80479 0 
2209 1105 1 2 48.7405 3.25057 0 
2210 1105 2 1.27511 49.4626 3.88032 0 
2211 1106 1 2 47.0574 4.24202 0 
2212 1106 2 1.27511 46.2445 4.82126 0 
2213 1107 1 2 48.6891 5.32161 0 
2214 1107 2 1.27511 49.425 5.96335 0 
2215 1108 1 2 46.9387 6.24278 0 
2216 1108 2 1.27511 46.1504 6.85645 0 
2217 1109 1 2 48.6515 7.3729 0 
2218 1109 2 1.27511 49.445 7.97258 0 
2219 1110 1 2 46.909 8.33735 0 
2220 1110 2 1.27511 46.1266 8.96045 0 
2221 1111 1 2 48.6059 9.42385 0 
2222 1111 2 1.27511 49.3655 10.0639 0 
2223 1112 1 2 46.9241 10.3816 0 
2224 1112 2 1.27511 46.1513 11.0141 0 
2225 1113 1 2 48.5961 11.4756 0 
2226 1113 2 1.27511 49.4112 12.0428 0 
2227 1114 1 2 46.9583 12.4553 0 
2228 1114 2 1.27511 46.1483 13.0744 0 
2229 1115 1 2 48.6411 13.4503 0 
2230 1115 2 1.27511 49.3541 14.0722 0 
2231 1116 1 2 46.8401 14.5027 0 
2232 1116 2 1.27511 46.1027 15.1823 0 
2233 1117 1 2 48.598 15.5066 0 
2234 1117 2 1.27511 49.3342 16.1319 0 
2235 1118 1 2 46.9105 16.5604 0 
2236 1118 2 1.27511 46.1536 17.1617 0 
2237 1119 1 2 48.5393 17.6058 0 
2238 1119 2 1.27511 49.4031 18.0543 0 
2239 1120 1 2 46.8601 18.6039 0 
2240 1120 2 1.27511 46.038 19.145 0 
2201 1101 1 2 48.6212 -0.814356 0 
1401 701 1 2 32.5164 -0.862269 0 
1601 801 1 2 36.5068 -0.78917 0 
1801 901 1 2 40.5002 -0.806172 0 
801 401 1 2 20.2856 -0.836699 0 
1001 501 1 2 24.26 -0.801382 0 
51 26 1 2 2.19371 24.5555 0 
601 301 1 2 16.1303 -0.867985 0 
2251 1126 1 2 46.8026 24.6033 0 
52 26 2 1.27511 1.42908 25.1379 0 
53 27 1 2 3.87048 25.6271 0 
54 27 2 1.27511 4.63797 26.2417 0 
55 28 1 2 2.18342 26.6033 0 
56 28 2 1.27511 1.441 27.24 0 
57 29 1 2 3.90199 27.683 0 
58 29 2 1.27511 4.62235 28.374 0 
59 30 1 2 2.17344 28.6341 0 
60 30 2 1.27511 1.41381 29.2595 0 
61 31 1 2 3.83886 29.7777 0 
62 31 2 1.27511 4.61314 30.3642 0 
63 32 1 2 2.17148 30.7253 0 
64 32 2 1.27511 1.46679 31.3635 0 
65 33 1 2 3.85878 31.8427 0 
66 33 2 1.27511 4.6555 32.3955 0 
67 34 1 2 2.15336 32.7871 0 
68 34 2 1.27511 1.3801 33.3772 0 
69 35 1 2 3.84639 33.8447 0 
70 35 2 1.27511 4.60331 34.459 0 
71 36 1 2 2.18116 34.8156 0 
72 36 2 1.27511 1.38365 35.3691 0 
73 37 1 2 3.84494 35.9395 0 
74 37 2 1.27511 4.63648 36.5107 0 
75 38 1 2 2.17819 36.857 0 
76 38 2 1.27511 1.3737 37.4088 0 
77 39 1 2 3.80257 37.9398 0 
78 39 2 1.27511 4.62202 38.5456 0 
79 40 1 2 2.10608 38.8986 0 
80 40 2 1.27511 1.3897 39.5339 0 
81 41 1 2 3.89517 40.0237 0 
82 41 2 1.27511 4.67914 40.5964 0 
83 42 1 2 2.16964 40.9121 0 
84 42 2 1.27511 1.39621 41.5553 0 
85 43 1 2 3.93668 41.9828 0 
86 43 2 1.27511 4.71297 42.5756 0 
87 44 1 2 2.15743 42.9269 0 
88 44 2 1.27511 1.38225 43.5521 0 
89 45 1 2 3.86152 43.9791 0 
90 45 2 1.27511 4.61112 44.6153 0 
91 46 1 2 2.21483 44.9383 0 
92 46 2 1.27511 1.43961 45.5519 0 
93 47 1 2 3.7883 46.0513 0 
94 47 2 1.27511 4.59753 46.6182 0 
95 48 1 2 2.10818 47.0478 0 
96 48 2 1.27511 1.34459 47.6294 0 
97 49 1 2 3.81316 48.0526 0 
98 49 2 1.27511 4.63154 48.603 0 
99 50 1 2 2.10559 49.0255 0 
100 50 2 1.27511 1.36412 49.6643 0 
2300 1150 2 1.27511 46.1335 49.6434 0 
252 126 2 1.27511 5.50677 25.1983 0 
253 127 1 2 7.88363 25.7134 0 
254 127 2 1.27511 8.63592 26.3609 0 
255 128 1 2 6.18765 26.6625 0 
256 128 2 1.27511 5.41827 27.2941 0 
257 129 1 2 7.87077 27.7477 0 
258 129 2 1.27511 8.70473 28.2909 0 
259 130 1 2 6.27918 28.7578 0 
260 130 2 1.27511 5.52045 29.3737 0 
261 131 1 2 7.95538 29.7317 0 
262 131 2 1.27511 8.74291 30.3252 0 
263 132 1 2 6.22005 30.8198 0 
264 132 2 1.27511 5.45486 31.4324 0 
265 133 1 2 7.87091 31.7956 0 
266 133 2 1.27511 8.67634 32.3179 0 
267 134 1 2 6.2496 32.824 0 
268 134 2 1.27511 5.47379 33.4427 0 
269 135 1 2 7.97199 33.8159 0 
270 135 2 1.27511 8.72455 34.4431 0 
271 136 1 2 6.23576 34.867 0 
272 136 2 1.27511 5.43904 35.4783 0 
273 137 1 2 7.99389 35.873 0 
274 137 2 1.27511 8.70843 36.5371 0 
275 138 1 2 6.21345 36.8513 0 
276 138 2 1.27511 5.47748 37.4839 0 
277 139 1 2 7.88079 37.9205 0 
278 139 2 1.27511 8.66048 38.5125 0 
279 140 1 2 6.21373 38.9306 0 
280 140 2 1.27511 5.45076 39.5469 0 
281 141 1 2 7.97599 39.8957 0 
282 141 2 1.27511 8.63505 40.6164 0 
283 142 1 2 6.27972 40.8962 0 
284 142 2 1.27511 5.55893 41.5782 0 
285 143 1 2 7.90018 42.0221 0 
286 143 2 1.27511 8.67967 42.6508 0 
287 144 1 2 6.25209 43.0595 0 
288 144 2 1.27511 5.44692 43.6601 0 
289 145 1 2 7.92649 44.0306 0 
290 145 2 1.27511 8.70071 44.6118 0 
291 146 1 2 6.26411 45.0923 0 
292 146 2 1.27511 5.45583 45.6529 0 
293 147 1 2 7.99542 46.0817 0 
294 147 2 1.27511 8.75921 46.6664 0 
295 148 1 2 6.23065 47.0377 0 
296 148 2 1.27511 5.45081 47.624 0 
297 149 1 2 7.93523 48.1109 0 
298 149 2 1.27511 8.71901 48.6915 0 
299 150 1 2 6.2001 49.0192 0 
300 150 2 1.27511 5.50552 49.6811 0 
2296 1148 2 1.27511 46.0732 47.5949 0 
452 226 2 1.27511 9.43232 25.2658 0 
453 227 1 2 11.966 25.6261 0 
454 227 2 1.27511 12.8561 26.1478 0 
455 228 1 2 10.2676 26.6577 0 
456 228 2 1.27511 9.51122 27.3267 0 
457 229 1 2 12.0111 27.583 0 
458 229 2 1.27511 12.7785 28.2134 0 
459 230 1 2 10.2911 28.677 0 
460 230 2 1.27511 9.55719 29.2664 0 
461 231 1 2 12.0536 29.6775 0 
462 231 2 1.27511 12.8712 30.2196 0 
463 232 1 2 10.289 30.7277 0 
464 232 2 1.27511 9.50664 31.3747 0 
465 233 1 2 12.0242 31.6858 0 
466 233 2 1.27511 12.6811 32.4352 0 
467 234 1 2 10.354 32.732 0 
468 234 2 1.27511 9.52861 33.2767 0 
469 235 1 2 11.9922 33.8416 0 
470 235 2 1.27511 12.7649 34.4561 0 
471 236 1 2 10.2692 34.7835 0 
472 236 2 1.27511 9.56952 35.4521 0 
473 237 1 2 12.0387 35.8813 0 
474 237 2 1.27511 12.7764 36.5273 0 
475 238 1 2 10.3211 36.8169 0 
476 238 2 1.27511 9.57163 37.4497 0 
477 239 1 2 11.9264 37.9144 0 
478 239 2 1.27511 12.7533 38.4208 0 
479 240 1 2 10.2678 38.8731 0 
480 240 2 1.27511 9.55327 39.5536 0 
481 241 1 2 11.9741 39.9188 0 
482 241 2 1.27511 12.708 40.5602 0 
483 242 1 2 10.2814 40.9618 0 
484 242 2 1.27511 9.52438 41.5767 0 
485 243 1 2 11.9524 41.9998 0 
486 243 2 1.27511 12.7779 42.528 0 
487 244 1 2 10.2762 43.0445 0 
488 244 2 1.27511 9.55119 43.6188 0 
489 245 1 2 11.9773 44.0705 0 
490 245 2 1.27511 12.7643 44.6395 0 
491 246 1 2 10.3423 45.0141 0 
492 246 2 1.27511 9.58713 45.6122 0 
493 247 1 2 11.9029 46.0782 0 
494 247 2 1.27511 12.7135 46.616 0 
495 248 1 2 10.2489 47.0763 0 
496 248 2 1.27511 9.54887 47.763 0 
497 249 1 2 11.9534 48.025 0 
498 249 2 1.27511 12.709 48.6348 0 
499 250 1 2 10.3436 49.1486 0 
500 250 2 1.27511 9.54735 49.687 0 
1851 926 1 2 38.7931 24.695 0 
652 326 2 1.27511 13.6246 25.1931 0 
653 327 1 2 16.1637 25.5678 0 
654 327 2 1.27511 16.9225 26.2126 0 
655 328 1 2 14.4084 26.6178 0 
656 328 2 1.27511 13.6168 27.1588 0 
657 329 1 2 16.1314 27.6169 0 
658 329 2 1.27511 16.8011 28.3654 0 
659 330 1 2 14.4508 28.6002 0 
660 330 2 1.27511 13.663 29.1895 0 
661 331 1 2 16.0689 29.7327 0 
662 331 2 1.27511 16.8273 30.3042 0 
663 332 1 2 14.3595 30.6981 0 
664 332 2 1.27511 13.6365 31.3032 0 
665 333 1 2 16.0389 31.7624 0 
666 333 2 1.27511 16.8242 32.3485 0 
667 334 1 2 14.271 32.7725 0 
668 334 2 1.27511 13.538 33.4292 0 
669 335 1 2 15.9913 33.7214 0 
670 335 2 1.27511 16.768 34.3001 0 
671 336 1 2 14.3564 34.8356 0 
672 336 2 1.27511 13.5863 35.4113 0 
673 337 1 2 16.1304 35.835 0 
674 337 2 1.27511 16.8847 36.4656 0 
675 338 1 2 14.4261 36.8699 0 
676 338 2 1.27511 13.7201 37.5122 0 
677 339 1 2 16.1389 37.821 0 
678 339 2 1.27511 16.776 38.5726 0 
679 340 1 2 14.3567 38.9794 0 
680 340 2 1.27511 13.5642 39.5394 0 
681 341 1 2 16.08 40.0075 0 
682 341 2 1.27511 16.8233 40.6296 0 
683 342 1 2 14.3181 40.9563 0 
684 342 2 1.27511 13.5731 41.5606 0 
685 343 1 2 16.0063 41.9983 0 
686 343 2 1.27511 16.7344 42.6506 0 
687 344 1 2 14.2986 42.9697 0 
688 344 2 1.27511 13.5337 43.55 0 
689 345 1 2 16.0186 44.0116 0 
690 345 2 1.27511 16.8211 44.5834 0 
691 346 1 2 14.31 45.0139 0 
692 346 2 1.27511 13.5864 45.6827 0 
693 347 1 2 15.9988 46.0626 0 
694 347 2 1.27511 16.7611 46.6737 0 
695 348 1 2 14.3737 47.1049 0 
696 348 2 1.27511 13.5209 47.5767 0 
697 349 1 2 16.0326 48.1186 0 
698 349 2 1.27511 16.8058 48.7199 0 
699 350 1 2 14.2958 49.0714 0 
700 350 2 1.27511 13.5502 49.6613 0 
2294 1147 2 1.27511 49.3347 46.5179 0 
852 426 2 1.27511 17.6934 25.1068 0 
853 427 1 2 20.1466 25.632 0 
854 427 2 1.27511 20.913 26.2052 0 
855 428 1 2 18.4636 26.5877 0 
856 428 2 1.27511 17.7058 27.2342 0 
857 429 1 2 20.1352 27.6345 0 
858 429 2 1.27511 20.8523 28.2691 0 
859 430 1 2 18.4598 28.7008 0 
860 430 2 1.27511 17.6736 29.2923 0 
861 431 1 2 20.071 29.7429 0 
862 431 2 1.27511 20.9055 30.2069 0 
863 432 1 2 18.4165 30.7653 0 
864 432 2 1.27511 17.6458 31.3291 0 
865 433 1 2 20.2096 31.7023 0 
866 433 2 1.27511 20.9678 32.3348 0 
867 434 1 2 18.4796 32.7245 0 
868 434 2 1.27511 17.6673 33.3016 0 
869 435 1 2 20.1892 33.741 0 
870 435 2 1.27511 20.8794 34.4099 0 
871 436 1 2 18.4092 34.7966 0 
872 436 2 1.27511 17.6441 35.4 0 
873 437 1 2 20.1628 35.8228 0 
874 437 2 1.27511 20.8961 36.4778 0 
875 438 1 2 18.4489 36.8325 0 
876 438 2 1.27511 17.6901 37.4429 0 
877 439 1 2 20.1603 37.8721 0 
878 439 2 1.27511 20.87 38.5371 0 
879 440 1 2 18.5193 38.9008 0 
880 440 2 1.27511 17.7034 39.4787 0 
881 441 1 2 20.1372 39.954 0 
882 441 2 1.27511 20.7862 40.6551 0 
883 442 1 2 18.4043 40.9814 0 
884 442 2 1.27511 17.6334 41.5788 0 
885 443 1 2 20.0362 42.027 0 
886 443 2 1.27511 20.8297 42.5801 0 
887 444 1 2 18.3872 43.0305 0 
888 444 2 1.27511 17.6037 43.5633 0 
889 445 1 2 20.1105 44.0282 0 
890 445 2 1.27511 20.8608 44.6323 0 
891 446 1 2 18.3793 45.0114 0 
892 446 2 1.27511 17.647 45.6807 0 
893 447 1 2 20.0783 46.0689 0 
894 447 2 1.27511 20.8614 46.7003 0 
895 448 1 2 18.4324 47.0945 0 
896 448 2 1.27511 17.6512 47.7457 0 
897 449 1 2 20.0212 48.0954 0 
898 449 2 1.27511 20.8075 48.6495 0 
899 450 1 2 18.3405 49.2027 0 
900 450 2 1.27511 17.5073 49.7296 0 
2293 1147 1 2 48.5433 45.9126 0 
1052 526 2 1.27511 21.7084 25.1525 0 
1053 527 1 2 24.2357 25.5743 0 
1054 527 2 1.27511 25.0236 26.1382 0 
1055 528 1 2 22.5333 26.6093 0 
1056 528 2 1.27511 21.7346 27.1877 0 
1057 529 1 2 24.2181 27.5856 0 
1058 529 2 1.27511 24.9683 28.2494 0 
1059 530 1 2 22.5212 28.5743 0 
1060 530 2 1.27511 21.7341 29.2031 0 
1061 531 1 2 24.1865 29.6517 0 
1062 531 2 1.27511 24.9777 30.2462 0 
1063 532 1 2 22.5412 30.664 0 
1064 532 2 1.27511 21.741 31.2472 0 
1065 533 1 2 24.1884 31.7407 0 
1066 533 2 1.27511 24.969 32.3676 0 
1067 534 1 2 22.4738 32.7299 0 
1068 534 2 1.27511 21.7724 33.3993 0 
1069 535 1 2 24.1565 33.7966 0 
1070 535 2 1.27511 24.9059 34.4613 0 
1071 536 1 2 22.5268 34.8504 0 
1072 536 2 1.27511 21.7487 35.4319 0 
1073 537 1 2 24.2006 35.8703 0 
1074 537 2 1.27511 24.9295 36.5184 0 