ITEM: TIMESTEP
1000134
ITEM: NUMBER OF ATOMS
4800
ITEM: BOX BOUNDS xy xz yz pp pp pp
0.959399 98.6564 -0.0379671
-0.981543 101.001 0
-0.5 0.5 0
ITEM: ATOMS id mol type c_diam x y z 
401 201 1 2 12.0284 -0.927506 0 
2 1 2 1.27511 4.67405 -0.327874 0 
3 2 1 2 2.2035 0.0855488 0 
4 2 2 1.27511 1.42825 0.688206 0 
5 3 1 2 3.89854 1.10628 0 
6 3 2 1.27511 4.6721 1.71103 0 
7 4 1 2 2.20126 2.12372 0 
8 4 2 1.27511 1.42583 2.72611 0 
9 5 1 2 3.89597 3.14452 0 
10 5 2 1.27511 4.66917 3.74966 0 
11 6 1 2 2.19863 4.16124 0 
12 6 2 1.27511 1.42393 4.76443 0 
13 7 1 2 3.89241 5.18213 0 
14 7 2 1.27511 4.66195 5.7914 0 
15 8 1 2 2.19825 6.19868 0 
16 8 2 1.27511 1.42524 6.80384 0 
17 9 1 2 3.88619 7.22301 0 
18 9 2 1.27511 4.65557 7.83259 0 
19 10 1 2 2.19401 8.23933 0 
20 10 2 1.27511 1.42076 8.84395 0 
21 11 1 2 3.88018 9.26459 0 
22 11 2 1.27511 4.64953 9.87417 0 
23 12 1 2 2.18672 10.2806 0 
24 12 2 1.27511 1.41371 10.8858 0 
25 13 1 2 3.87201 11.3052 0 
26 13 2 1.27511 4.64154 11.9142 0 
27 14 1 2 2.17861 12.3221 0 
28 14 2 1.27511 1.40581 12.9276 0 
29 15 1 2 3.8643 13.3462 0 
30 15 2 1.27511 4.63414 13.955 0 
31 16 1 2 2.17176 14.3637 0 
32 16 2 1.27511 1.39888 14.9689 0 
33 17 1 2 3.85861 15.3872 0 
34 17 2 1.27511 4.62985 15.9943 0 
35 18 1 2 2.16624 16.4051 0 
36 18 2 1.27511 1.39271 17.0096 0 
37 19 1 2 3.85471 17.428 0 
38 19 2 1.27511 4.62978 18.0307 0 
39 20 1 2 2.15908 18.4465 0 
40 20 2 1.27511 1.38382 19.0489 0 
41 21 1 2 3.85355 19.4656 0 
42 21 2 1.27511 4.62854 20.0683 0 
43 22 1 2 2.15566 20.4846 0 
44 22 2 1.27511 1.3806 21.0876 0 
45 23 1 2 3.85136 21.5029 0 
46 23 2 1.27511 4.6268 22.105 0 
47 24 1 2 2.15372 22.5229 0 
48 24 2 1.27511 1.37909 23.1265 0 
49 25 1 2 3.85064 23.5401 0 
50 25 2 1.27511 4.62597 24.1424 0 
2242 1121 2 1.27511 49.4136 20.0532 0 
202 101 2 1.27511 8.73685 -0.322297 0 
203 102 1 2 6.27605 0.0877899 0 
204 102 2 1.27511 5.50335 0.692995 0 
205 103 1 2 7.9647 1.11064 0 
206 103 2 1.27511 8.73486 1.7192 0 
207 104 1 2 6.27388 2.12766 0 
208 104 2 1.27511 5.50085 2.73233 0 
209 105 1 2 7.96138 3.1517 0 
210 105 2 1.27511 8.73156 3.76021 0 
211 106 1 2 6.26922 4.16827 0 
212 106 2 1.27511 5.4961 4.77313 0 
213 107 1 2 7.95619 5.19233 0 
214 107 2 1.27511 8.72627 5.80089 0 
215 108 1 2 6.26284 6.209 0 
216 108 2 1.27511 5.48999 6.81424 0 
217 109 1 2 7.94929 7.2327 0 
218 109 2 1.27511 8.71912 7.84136 0 
219 110 1 2 6.25648 8.25032 0 
220 110 2 1.27511 5.48386 8.85586 0 
221 111 1 2 7.94296 9.27405 0 
222 111 2 1.27511 8.71356 9.88189 0 
223 112 1 2 6.25061 10.2924 0 
224 112 2 1.27511 5.4773 10.8972 0 
225 113 1 2 7.93843 11.3158 0 
226 113 2 1.27511 8.71302 11.919 0 
227 114 1 2 6.24264 12.3344 0 
228 114 2 1.27511 5.46724 12.9368 0 
229 115 1 2 7.93652 13.354 0 
230 115 2 1.27511 8.71134 13.9569 0 
231 116 1 2 6.23799 14.3727 0 
232 116 2 1.27511 5.46238 14.9752 0 
233 117 1 2 7.93384 15.3911 0 
234 117 2 1.27511 8.70908 15.9936 0 
235 118 1 2 6.23555 16.4099 0 
236 118 2 1.27511 5.45986 17.012 0 
237 119 1 2 7.93195 17.428 0 
238 119 2 1.27511 8.70729 18.0303 0 
239 120 1 2 6.23409 18.447 0 
240 120 2 1.27511 5.45857 19.0493 0 
241 121 1 2 7.93039 19.4649 0 
242 121 2 1.27511 8.70564 20.0673 0 
243 122 1 2 6.23263 20.4842 0 
244 122 2 1.27511 5.45716 21.0867 0 
245 123 1 2 7.92871 21.5018 0 
246 123 2 1.27511 8.70387 22.1042 0 
247 124 1 2 6.2312 22.5212 0 
248 124 2 1.27511 5.45569 23.1235 0 
249 125 1 2 7.92716 23.5388 0 
250 125 2 1.27511 8.70215 24.1414 0 
2247 1124 1 2 46.9518 22.5052 0 
402 201 2 1.27511 12.7991 -0.319664 0 
403 202 1 2 10.3384 0.092385 0 
404 202 2 1.27511 9.56707 0.699355 0 
405 203 1 2 12.0268 1.11417 0 
406 203 2 1.27511 12.7975 1.72202 0 
407 204 1 2 10.3363 2.13433 0 
408 204 2 1.27511 9.56471 2.74111 0 
409 205 1 2 12.0246 3.15616 0 
410 205 2 1.27511 12.7954 3.76374 0 
411 206 1 2 10.3333 4.17659 0 
412 206 2 1.27511 9.56055 4.78212 0 
413 207 1 2 12.022 5.19865 0 
414 207 2 1.27511 12.7955 5.8032 0 
415 208 1 2 10.3269 6.21841 0 
416 208 2 1.27511 9.5541 6.82382 0 
417 209 1 2 12.0181 7.2384 0 
418 209 2 1.27511 12.7925 7.84204 0 
419 210 1 2 10.3216 8.25963 0 
420 210 2 1.27511 9.54632 8.86249 0 
421 211 1 2 12.0163 9.27732 0 
422 211 2 1.27511 12.7902 9.88141 0 
423 212 1 2 10.3186 10.2975 0 
424 212 2 1.27511 9.54334 10.9002 0 
425 213 1 2 12.0138 11.316 0 
426 213 2 1.27511 12.7883 11.9194 0 
427 214 1 2 10.3168 12.3354 0 
428 214 2 1.27511 9.54152 12.9382 0 
429 215 1 2 12.0125 13.354 0 
430 215 2 1.27511 12.7877 13.9565 0 
431 216 1 2 10.3152 14.3732 0 
432 216 2 1.27511 9.53973 14.9756 0 
433 217 1 2 12.0114 15.3913 0 
434 217 2 1.27511 12.7867 15.9937 0 
435 218 1 2 10.3136 16.4103 0 
436 218 2 1.27511 9.53773 17.0122 0 
437 219 1 2 12.0099 17.4284 0 
438 219 2 1.27511 12.785 18.031 0 
439 220 1 2 10.3119 18.4472 0 
440 220 2 1.27511 9.53601 19.049 0 
441 221 1 2 12.0081 19.4655 0 
442 221 2 1.27511 12.783 20.0684 0 
443 222 1 2 10.31 20.484 0 
444 222 2 1.27511 9.53427 21.086 0 
445 223 1 2 12.0059 21.5027 0 
446 223 2 1.27511 12.7805 22.1059 0 
447 224 1 2 10.308 22.521 0 
448 224 2 1.27511 9.53232 23.1231 0 
449 225 1 2 12.0035 23.5401 0 
450 225 2 1.27511 12.7779 24.1436 0 
2248 1124 2 1.27511 46.1814 23.1133 0 
602 301 2 1.27511 16.8626 -0.321556 0 
603 302 1 2 14.4009 0.0937998 0 
604 302 2 1.27511 13.6297 0.70126 0 
605 303 1 2 16.0904 1.11316 0 
606 303 2 1.27511 16.8621 1.71973 0 
607 304 1 2 14.3996 2.13551 0 
608 304 2 1.27511 13.6279 2.74256 0 
609 305 1 2 16.0899 3.1543 0 
610 305 2 1.27511 16.8617 3.76081 0 
611 306 1 2 14.3984 4.17612 0 
612 306 2 1.27511 13.6266 4.78291 0 
613 307 1 2 16.0882 5.19465 0 
614 307 2 1.27511 16.8603 5.80047 0 
615 308 1 2 14.3971 6.21702 0 
616 308 2 1.27511 13.6247 6.82318 0 
617 309 1 2 16.0867 7.2355 0 
618 309 2 1.27511 16.8611 7.83859 0 
619 310 1 2 14.3939 8.25765 0 
620 310 2 1.27511 13.6216 8.86339 0 
621 311 1 2 16.0864 9.27504 0 
622 311 2 1.27511 16.8615 9.87781 0 
623 312 1 2 14.3931 10.2979 0 
624 312 2 1.27511 13.6183 10.9009 0 
625 313 1 2 16.0893 11.3143 0 
626 313 2 1.27511 16.8643 11.9171 0 
627 314 1 2 14.393 12.3353 0 
628 314 2 1.27511 13.6176 12.9378 0 
629 315 1 2 16.0895 13.3524 0 
630 315 2 1.27511 16.8643 13.9552 0 
631 316 1 2 14.3922 14.3725 0 
632 316 2 1.27511 13.6168 14.9751 0 
633 317 1 2 16.0884 15.3904 0 
634 317 2 1.27511 16.8627 15.994 0 
635 318 1 2 14.3909 16.4101 0 
636 318 2 1.27511 13.6154 17.0125 0 
637 319 1 2 16.0865 17.4287 0 
638 319 2 1.27511 16.8604 18.0327 0 
639 320 1 2 14.389 18.4478 0 
640 320 2 1.27511 13.6135 19.0502 0 
641 321 1 2 16.0842 19.4673 0 
642 321 2 1.27511 16.8579 20.0716 0 
643 322 1 2 14.3868 20.4858 0 
644 322 2 1.27511 13.6112 21.088 0 
645 323 1 2 16.0818 21.5061 0 
646 323 2 1.27511 16.8551 22.1112 0 
647 324 1 2 14.3843 22.5237 0 
648 324 2 1.27511 13.6085 23.1255 0 
649 325 1 2 16.0788 23.5452 0 
650 325 2 1.27511 16.8517 24.1508 0 
2249 1125 1 2 48.6419 23.5285 0 
802 401 2 1.27511 20.9267 -0.326297 0 
803 402 1 2 18.4647 0.090784 0 
804 402 2 1.27511 17.6937 0.698514 0 
805 403 1 2 20.1547 1.10869 0 
806 403 2 1.27511 20.9266 1.71504 0 
807 404 1 2 18.4645 2.1322 0 
808 404 2 1.27511 17.6934 2.73986 0 
809 405 1 2 20.1548 3.15006 0 
810 405 2 1.27511 20.927 3.75593 0 
811 406 1 2 18.4645 4.17373 0 
812 406 2 1.27511 17.693 4.78104 0 
813 407 1 2 20.1557 5.1913 0 
814 407 2 1.27511 20.9288 5.79615 0 
815 408 1 2 18.4652 6.21489 0 
816 408 2 1.27511 17.6905 6.81823 0 
817 409 1 2 20.1595 7.23224 0 
818 409 2 1.27511 20.9343 7.83507 0 
819 410 1 2 18.4641 8.25282 0 
820 410 2 1.27511 17.6898 8.85671 0 
821 411 1 2 20.1602 9.26965 0 
822 411 2 1.27511 20.9338 9.87394 0 
823 412 1 2 18.4648 10.2895 0 
824 412 2 1.27511 17.6932 10.8964 0 
825 413 1 2 20.1574 11.3073 0 
826 413 2 1.27511 20.9288 11.9144 0 
827 414 1 2 18.4669 12.329 0 
828 414 2 1.27511 17.6951 12.9357 0 
829 415 1 2 20.1566 13.3482 0 
830 415 2 1.27511 20.9278 13.9553 0 
831 416 1 2 18.4663 14.3691 0 
832 416 2 1.27511 17.6939 14.975 0 
833 417 1 2 20.1555 15.3888 0 
834 417 2 1.27511 20.9267 15.9959 0 
835 418 1 2 18.4647 16.4088 0 
836 418 2 1.27511 17.6919 17.0142 0 
837 419 1 2 20.1537 17.429 0 
838 419 2 1.27511 20.9248 18.0363 0 
839 420 1 2 18.4625 18.4481 0 
840 420 2 1.27511 17.6894 19.053 0 
841 421 1 2 20.1513 19.4691 0 
842 421 2 1.27511 20.922 20.0768 0 
843 422 1 2 18.4593 20.4872 0 
844 422 2 1.27511 17.6866 21.0926 0 
845 423 1 2 20.1469 21.5087 0 
846 423 2 1.27511 20.9172 22.1167 0 
847 424 1 2 18.4559 22.5273 0 
848 424 2 1.27511 17.6836 23.133 0 
849 425 1 2 20.1427 23.5497 0 
850 425 2 1.27511 20.9129 24.158 0 
2246 1123 2 1.27511 49.4135 22.0946 0 
1002 501 2 1.27511 24.9901 -0.331092 0 
1003 502 1 2 22.5289 0.0857219 0 
1004 502 2 1.27511 21.7579 0.693624 0 
1005 503 1 2 24.2192 1.10361 0 
1006 503 2 1.27511 24.9916 1.70935 0 
1007 504 1 2 22.5293 2.12691 0 
1008 504 2 1.27511 21.758 2.73449 0 
1009 505 1 2 24.2203 3.14423 0 
1010 505 2 1.27511 24.9925 3.75017 0 
1011 506 1 2 22.5304 4.16729 0 
1012 506 2 1.27511 21.7591 4.77464 0 
1013 507 1 2 24.222 5.18471 0 
1014 507 2 1.27511 24.9935 5.79156 0 
1015 508 1 2 22.5332 6.20668 0 
1016 508 2 1.27511 21.7622 6.81391 0 
1017 509 1 2 24.2234 7.22592 0 
1018 509 2 1.27511 24.9941 7.83371 0 
1019 510 1 2 22.5352 8.24729 0 
1020 510 2 1.27511 21.7644 8.8549 0 
1021 511 1 2 24.2234 9.26794 0 
1022 511 2 1.27511 24.9942 9.87551 0 
1023 512 1 2 22.5339 10.2891 0 
1024 512 2 1.27511 21.7619 10.8956 0 
1025 513 1 2 24.2225 11.3093 0 
1026 513 2 1.27511 24.9936 11.9165 0 
1027 514 1 2 22.5317 12.3294 0 
1028 514 2 1.27511 21.7593 12.9352 0 
1029 515 1 2 24.221 13.3498 0 
1030 515 2 1.27511 24.9922 13.957 0 
1031 516 1 2 22.5302 14.3695 0 
1032 516 2 1.27511 21.7584 14.9759 0 
1033 517 1 2 24.2195 15.3904 0 
1034 517 2 1.27511 24.9905 15.9977 0 
1035 518 1 2 22.5288 16.4101 0 
1036 518 2 1.27511 21.7569 17.0165 0 
1037 519 1 2 24.2176 17.4312 0 
1038 519 2 1.27511 24.9885 18.0388 0 
1039 520 1 2 22.5263 18.4508 0 
1040 520 2 1.27511 21.7547 19.0575 0 
1041 521 1 2 24.2142 19.4719 0 
1042 521 2 1.27511 24.9851 20.0792 0 
1043 522 1 2 22.5235 20.4925 0 
1044 522 2 1.27511 21.7513 21.0986 0 
1045 523 1 2 24.2116 21.514 0 
1046 523 2 1.27511 24.9858 22.1177 0 
1047 524 1 2 22.5183 22.5347 0 
1048 524 2 1.27511 21.7441 23.1384 0 
1049 525 1 2 24.213 23.5529 0 
1050 525 2 1.27511 24.9878 24.1557 0 
2250 1125 2 1.27511 49.413 24.1363 0 
1202 601 2 1.27511 29.0552 -0.335554 0 
1203 602 1 2 26.5935 0.0804304 0 
1204 602 2 1.27511 25.8224 0.687981 0 
1205 603 1 2 28.2835 1.09901 0 
1206 603 2 1.27511 29.0545 1.70653 0 
1207 604 1 2 26.5941 2.12144 0 
1208 604 2 1.27511 25.8231 2.72912 0 
1209 605 1 2 28.2838 3.14087 0 
1210 605 2 1.27511 29.0548 3.74837 0 
1211 606 1 2 26.5948 4.1627 0 
1212 606 2 1.27511 25.8241 4.77047 0 
1213 607 1 2 28.2841 5.18287 0 
1214 607 2 1.27511 29.0547 5.79088 0 
1215 608 1 2 26.5954 6.20442 0 
1216 608 2 1.27511 25.8248 6.81242 0 
1217 609 1 2 28.2844 7.22517 0 
1218 609 2 1.27511 29.0551 7.83303 0 
1219 610 1 2 26.5957 8.24647 0 
1220 610 2 1.27511 25.8251 8.85445 0 
1221 611 1 2 28.2848 9.26727 0 
1222 611 2 1.27511 29.0558 9.87479 0 
1223 612 1 2 26.5958 10.2884 0 
1224 612 2 1.27511 25.825 10.8961 0 
1225 613 1 2 28.285 11.3089 0 
1226 613 2 1.27511 29.0562 11.9162 0 
1227 614 1 2 26.5955 12.33 0 
1228 614 2 1.27511 25.8241 12.937 0 
1229 615 1 2 28.2848 13.3504 0 
1230 615 2 1.27511 29.056 13.9575 0 
1231 616 1 2 26.5944 14.3711 0 
1232 616 2 1.27511 25.8226 14.9776 0 
1233 617 1 2 28.2837 15.3914 0 
1234 617 2 1.27511 29.0552 15.9983 0 
1235 618 1 2 26.5924 16.4119 0 
1236 618 2 1.27511 25.8208 17.0189 0 
1237 619 1 2 28.2814 17.4318 0 
1238 619 2 1.27511 29.0532 18.0379 0 
1239 620 1 2 26.5906 18.4535 0 
1240 620 2 1.27511 25.8185 19.0599 0 
1241 621 1 2 28.2807 19.4731 0 
1242 621 2 1.27511 29.0558 20.0758 0 
1243 622 1 2 26.5882 20.4945 0 
1244 622 2 1.27511 25.8141 21.0983 0 
1245 623 1 2 28.2841 21.5115 0 
1246 623 2 1.27511 29.0592 22.1139 0 
1247 624 1 2 26.5899 22.5321 0 
1248 624 2 1.27511 25.8158 23.1359 0 
1249 625 1 2 28.2862 23.5493 0 
1250 625 2 1.27511 29.0614 24.1517 0 
2244 1122 2 1.27511 46.176 21.0705 0 
1402 701 2 1.27511 33.1253 -0.335282 0 
1403 702 1 2 30.6569 0.0786507 0 
1404 702 2 1.27511 29.8855 0.685567 0 
1405 703 1 2 32.347 1.09758 0 
1406 703 2 1.27511 33.1168 1.70638 0 
1407 704 1 2 30.6567 2.11927 0 
1408 704 2 1.27511 29.8859 2.72707 0 
1409 705 1 2 32.3447 3.14033 0 
1410 705 2 1.27511 33.115 3.74872 0 
1411 706 1 2 30.656 4.16151 0 
1412 706 2 1.27511 29.8856 4.76967 0 
1413 707 1 2 32.3447 5.18252 0 
1414 707 2 1.27511 33.1156 5.78999 0 
1415 708 1 2 30.6563 6.20379 0 
1416 708 2 1.27511 29.8859 6.81192 0 
1417 709 1 2 32.3456 7.22443 0 
1418 709 2 1.27511 33.1167 7.83176 0 
1419 710 1 2 30.6572 8.24589 0 
1420 710 2 1.27511 29.8866 8.8538 0 
1421 711 1 2 32.3471 9.26618 0 
1422 711 2 1.27511 33.1186 9.87294 0 
1423 712 1 2 30.6582 10.2877 0 
1424 712 2 1.27511 29.8872 10.8952 0 
1425 713 1 2 32.3484 11.3078 0 
1426 713 2 1.27511 33.1199 11.9148 0 
1427 714 1 2 30.6585 12.3291 0 
1428 714 2 1.27511 29.8874 12.9366 0 
1429 715 1 2 32.3483 13.3488 0 
1430 715 2 1.27511 33.1202 13.955 0 
1431 716 1 2 30.6581 14.3706 0 
1432 716 2 1.27511 29.887 14.9781 0 
1433 717 1 2 32.3481 15.3896 0 
1434 717 2 1.27511 33.1208 15.9948 0 
1435 718 1 2 30.6582 16.4122 0 
1436 718 2 1.27511 29.886 17.0185 0 
1437 719 1 2 32.35 17.4305 0 
1438 719 2 1.27511 33.1262 18.0319 0 
1439 720 1 2 30.6575 18.4524 0 
1440 720 2 1.27511 29.8834 19.056 0 
1441 721 1 2 32.3548 19.4682 0 
1442 721 2 1.27511 33.1305 20.07 0 
1443 722 1 2 30.6605 20.4894 0 
1444 722 2 1.27511 29.8866 21.0935 0 
1445 723 1 2 32.3576 21.5058 0 
1446 723 2 1.27511 33.133 22.1079 0 
1447 724 1 2 30.6632 22.5272 0 
1448 724 2 1.27511 29.8895 23.1317 0 
1449 725 1 2 32.3598 23.5437 0 
1450 725 2 1.27511 33.135 24.1461 0 
2245 1123 1 2 48.6427 21.4869 0 
1602 801 2 1.27511 37.1913 -0.328392 0 
1603 802 1 2 34.7241 0.083902 0 
1604 802 2 1.27511 33.9513 0.689183 0 
1605 803 1 2 36.4138 1.10569 0 
1606 803 2 1.27511 37.1874 1.71035 0 
1607 804 1 2 34.7195 2.12474 0 
1608 804 2 1.27511 33.9447 2.72758 0 
1609 805 1 2 36.4136 3.14471 0 
1610 805 2 1.27511 37.1871 3.74929 0 
1611 806 1 2 34.7179 4.16222 0 
1612 806 2 1.27511 33.9463 4.76885 0 
1613 807 1 2 36.4104 5.1827 0 
1614 807 2 1.27511 37.1846 5.78664 0 
1615 808 1 2 34.7174 6.20258 0 
1616 808 2 1.27511 33.9468 6.81053 0 
1617 809 1 2 36.4096 7.22096 0 
1618 809 2 1.27511 37.1815 7.82743 0 
1619 810 1 2 34.7199 8.24331 0 
1620 810 2 1.27511 33.9491 8.85128 0 
1621 811 1 2 36.41 9.26205 0 
1622 811 2 1.27511 37.1822 9.86797 0 
1623 812 1 2 34.7208 10.2849 0 
1624 812 2 1.27511 33.9505 10.8933 0 
1625 813 1 2 36.4111 11.303 0 
1626 813 2 1.27511 37.1838 11.9083 0 
1627 814 1 2 34.7224 12.3271 0 
1628 814 2 1.27511 33.952 12.9355 0 
1629 815 1 2 36.4136 13.3445 0 
1630 815 2 1.27511 37.1876 13.9481 0 
1631 816 1 2 34.725 14.3697 0 
1632 816 2 1.27511 33.9507 14.9738 0 
1633 817 1 2 36.4216 15.3862 0 
1634 817 2 1.27511 37.1978 15.9878 0 
1635 818 1 2 34.7272 16.4075 0 
1636 818 2 1.27511 33.9531 17.0114 0 
1637 819 1 2 36.4261 17.4234 0 
1638 819 2 1.27511 37.2022 18.0248 0 
1639 820 1 2 34.7313 18.4447 0 
1640 820 2 1.27511 33.9576 19.0492 0 
1641 821 1 2 36.4288 19.4611 0 
1642 821 2 1.27511 37.2038 20.064 0 
1643 822 1 2 34.7346 20.483 0 
1644 822 2 1.27511 33.9611 21.0877 0 
1645 823 1 2 36.4312 21.5001 0 
1646 823 2 1.27511 37.2062 22.103 0 
1647 824 1 2 34.737 22.5217 0 
1648 824 2 1.27511 33.9632 23.126 0 
1649 825 1 2 36.4337 23.5387 0 
1650 825 2 1.27511 37.2092 24.1409 0 
2243 1122 1 2 46.9493 20.4655 0 
1802 901 2 1.27511 41.2596 -0.327412 0 
1803 902 1 2 38.7922 0.0895264 0 
1804 902 2 1.27511 38.0177 0.692722 0 
1805 903 1 2 40.4866 1.10821 0 
1806 903 2 1.27511 41.261 1.71153 0 
1807 904 1 2 38.7912 2.12745 0 
1808 904 2 1.27511 38.0163 2.73021 0 
1809 905 1 2 40.4861 3.14651 0 
1810 905 2 1.27511 41.2605 3.74994 0 
1811 906 1 2 38.7901 4.16577 0 
1812 906 2 1.27511 38.0154 4.76898 0 
1813 907 1 2 40.4849 5.18506 0 
1814 907 2 1.27511 41.2597 5.78799 0 
1815 908 1 2 38.7878 6.20483 0 
1816 908 2 1.27511 38.0127 6.80773 0 
1817 909 1 2 40.4839 7.22321 0 
1818 909 2 1.27511 41.2592 7.82562 0 
1819 910 1 2 38.7866 8.24318 0 
1820 910 2 1.27511 38.0121 8.84685 0 
1821 911 1 2 40.4838 9.26103 0 
1822 911 2 1.27511 41.2596 9.86288 0 
1823 912 1 2 38.7871 10.2819 0 
1824 912 2 1.27511 38.0132 10.8865 0 
1825 913 1 2 40.4851 11.2986 0 
1826 913 2 1.27511 41.2614 11.9001 0 
1827 914 1 2 38.7893 12.3204 0 
1828 914 2 1.27511 38.0157 12.9254 0 
1829 915 1 2 40.4882 13.3358 0 
1830 915 2 1.27511 41.2638 13.9379 0 
1831 916 1 2 38.7939 14.3576 0 
1832 916 2 1.27511 38.0218 14.9639 0 
1833 917 1 2 40.4915 15.3732 0 
1834 917 2 1.27511 41.2636 15.9793 0 
1835 918 1 2 38.8017 16.3963 0 
1836 918 2 1.27511 38.0319 17.0053 0 
1837 919 1 2 40.4934 17.4147 0 
1838 919 2 1.27511 41.2668 18.0194 0 
1839 920 1 2 38.8057 18.4391 0 
1840 920 2 1.27511 38.032 19.0436 0 
1841 921 1 2 40.5005 19.4567 0 
1842 921 2 1.27511 41.276 20.0588 0 
1843 922 1 2 38.8073 20.4782 0 
1844 922 2 1.27511 38.0338 21.0828 0 
1845 923 1 2 40.5047 21.4949 0 
1846 923 2 1.27511 41.2807 22.0963 0 
1847 924 1 2 38.8109 22.5167 0 
1848 924 2 1.27511 38.037 23.1208 0 
1849 925 1 2 40.5089 23.5333 0 
1850 925 2 1.27511 41.2845 24.1355 0 
801 401 1 2 20.1549 -0.932575 0 
2002 1001 2 1.27511 45.3329 -0.331391 0 
2003 1002 1 2 42.8632 0.0868197 0 
2004 1002 2 1.27511 42.0895 0.691231 0 
2005 1003 1 2 44.5589 1.10437 0 
2006 1003 2 1.27511 45.3337 1.70739 0 
2007 1004 1 2 42.8639 2.12587 0 
2008 1004 2 1.27511 42.0901 2.73033 0 
2009 1005 1 2 44.5595 3.14323 0 
2010 1005 2 1.27511 45.3343 3.74612 0 
2011 1006 1 2 42.8639 4.16482 0 
2012 1006 2 1.27511 42.0895 4.76867 0 
2013 1007 1 2 44.5598 5.18176 0 
2014 1007 2 1.27511 45.3349 5.78429 0 
2015 1008 1 2 42.8637 6.20312 0 
2016 1008 2 1.27511 42.0889 6.80647 0 
2017 1009 1 2 44.5602 7.21987 0 
2018 1009 2 1.27511 45.3356 7.82219 0 
2019 1010 1 2 42.864 8.24083 0 
2020 1010 2 1.27511 42.0889 8.84383 0 
2021 1011 1 2 44.5611 9.25773 0 
2022 1011 2 1.27511 45.3364 9.86014 0 
2023 1012 1 2 42.865 10.2781 0 
2024 1012 2 1.27511 42.0899 10.8809 0 
2025 1013 1 2 44.5623 11.2956 0 
2026 1013 2 1.27511 45.3375 11.8983 0 
2027 1014 1 2 42.8665 12.3153 0 
2028 1014 2 1.27511 42.0919 12.9185 0 
2029 1015 1 2 44.5633 13.3337 0 
2030 1015 2 1.27511 45.3386 13.9362 0 
2031 1016 1 2 42.8673 14.3538 0 
2032 1016 2 1.27511 42.0933 14.9581 0 
2033 1017 1 2 44.5644 15.3716 0 
2034 1017 2 1.27511 45.3402 15.9735 0 
2035 1018 1 2 42.8687 16.3925 0 
2036 1018 2 1.27511 42.0951 16.9973 0 
2037 1019 1 2 44.5671 17.4091 0 
2038 1019 2 1.27511 45.3425 18.0115 0 
2039 1020 1 2 42.8731 18.4303 0 
2040 1020 2 1.27511 42.1008 19.0362 0 
2041 1021 1 2 44.5707 19.4469 0 
2042 1021 2 1.27511 45.3435 20.0523 0 
2043 1022 1 2 42.8808 20.4694 0 
2044 1022 2 1.27511 42.1082 21.0754 0 
2045 1023 1 2 44.5759 21.4879 0 
2046 1023 2 1.27511 45.3487 22.0933 0 
2047 1024 1 2 42.8851 22.5089 0 
2048 1024 2 1.27511 42.1116 23.1137 0 
2049 1025 1 2 44.5795 23.5277 0 
2050 1025 2 1.27511 45.351 24.1346 0 
2241 1121 1 2 48.6418 19.4465 0 
2202 1101 2 1.27511 49.4059 -0.336499 0 
2203 1102 1 2 46.9363 0.0828106 0 
2204 1102 2 1.27511 46.1625 0.687229 0 
2205 1103 1 2 48.6322 1.09961 0 
2206 1103 2 1.27511 49.4069 1.70259 0 
2207 1104 1 2 46.9371 2.12168 0 
2208 1104 2 1.27511 46.1632 2.72603 0 
2209 1105 1 2 48.6332 3.13859 0 
2210 1105 2 1.27511 49.4081 3.74149 0 
2211 1106 1 2 46.938 4.16036 0 
2212 1106 2 1.27511 46.164 4.7645 0 
2213 1107 1 2 48.6343 5.1774 0 
2214 1107 2 1.27511 49.4093 5.78013 0 
2215 1108 1 2 46.9389 6.19877 0 
2216 1108 2 1.27511 46.1646 6.80257 0 
2217 1109 1 2 48.6354 7.2159 0 
2218 1109 2 1.27511 49.4105 7.81854 0 
2219 1110 1 2 46.9397 8.23687 0 
2220 1110 2 1.27511 46.1653 8.84058 0 
2221 1111 1 2 48.6362 9.25413 0 
2222 1111 2 1.27511 49.4113 9.85683 0 
2223 1112 1 2 46.9407 10.275 0 
2224 1112 2 1.27511 46.1663 10.8787 0 
2225 1113 1 2 48.6371 11.2926 0 
2226 1113 2 1.27511 49.412 11.8956 0 
2227 1114 1 2 46.942 12.3133 0 
2228 1114 2 1.27511 46.1675 12.9168 0 
2229 1115 1 2 48.6388 13.3315 0 
2230 1115 2 1.27511 49.4136 13.9347 0 
2231 1116 1 2 46.9435 14.3513 0 
2232 1116 2 1.27511 46.1688 14.9544 0 
2233 1117 1 2 48.6406 15.3701 0 
2234 1117 2 1.27511 49.4153 15.9734 0 
2235 1118 1 2 46.9451 16.3889 0 
2236 1118 2 1.27511 46.1704 16.9919 0 
2237 1119 1 2 48.6416 17.4085 0 
2238 1119 2 1.27511 49.416 18.0123 0 
2239 1120 1 2 46.9458 18.427 0 
2240 1120 2 1.27511 46.1723 19.0316 0 
601 301 1 2 16.0911 -0.928388 0 
2001 1001 1 2 44.5581 -0.934331 0 
1 1 1 2 3.90047 -0.93259 0 
1201 601 1 2 28.284 -0.942745 0 
1401 701 1 2 32.3526 -0.940976 0 
1601 801 1 2 36.4187 -0.933914 0 
201 101 1 2 7.96626 -0.93029 0 
2201 1101 1 2 48.6312 -0.939503 0 
1801 901 1 2 40.4848 -0.930426 0 
1001 501 1 2 24.2186 -0.937902 0 
651 326 1 2 14.3809 24.5615 0 
52 26 2 1.27511 1.37998 25.1645 0 
53 27 1 2 3.85109 25.5778 0 
54 27 2 1.27511 4.62599 26.1808 0 
55 28 1 2 2.15582 26.5987 0 
56 28 2 1.27511 1.38191 27.2029 0 
57 29 1 2 3.85207 27.6163 0 
58 29 2 1.27511 4.62673 28.2195 0 
59 30 1 2 2.15714 28.6373 0 
60 30 2 1.27511 1.38343 29.2418 0 
61 31 1 2 3.85281 29.6549 0 
62 31 2 1.27511 4.62752 30.258 0 
63 32 1 2 2.15786 30.676 0 
64 32 2 1.27511 1.3842 31.2805 0 
65 33 1 2 3.85323 31.6932 0 
66 33 2 1.27511 4.62796 32.2961 0 
67 34 1 2 2.15897 32.7149 0 
68 34 2 1.27511 1.38516 33.3191 0 
69 35 1 2 3.85488 33.7322 0 
70 35 2 1.27511 4.62935 34.3356 0 
71 36 1 2 2.16028 34.7534 0 
72 36 2 1.27511 1.38613 35.3573 0 
73 37 1 2 3.85643 35.7711 0 
74 37 2 1.27511 4.63055 36.375 0 
75 38 1 2 2.16114 36.7913 0 
76 38 2 1.27511 1.38696 37.3952 0 
77 39 1 2 3.85662 37.8096 0 
78 39 2 1.27511 4.6294 38.4151 0 
79 40 1 2 2.16157 38.8287 0 
80 40 2 1.27511 1.39048 39.4361 0 
81 41 1 2 3.85313 39.8484 0 
82 41 2 1.27511 4.62316 40.4572 0 
83 42 1 2 2.16337 40.8694 0 
84 42 2 1.27511 1.39172 41.4761 0 
85 43 1 2 3.85175 41.8912 0 
86 43 2 1.27511 4.62147 42.5003 0 
87 44 1 2 2.16215 42.9109 0 
88 44 2 1.27511 1.39012 43.517 0 
89 45 1 2 3.84974 43.934 0 
90 45 2 1.27511 4.61996 44.5426 0 
91 46 1 2 2.15852 44.9528 0 
92 46 2 1.27511 1.38613 45.5588 0 
93 47 1 2 3.84656 45.9752 0 
94 47 2 1.27511 4.61751 46.5827 0 
95 48 1 2 2.15491 46.9937 0 
96 48 2 1.27511 1.38261 47.5996 0 
97 49 1 2 3.84383 48.0159 0 
98 49 2 1.27511 4.61521 48.623 0 
99 50 1 2 2.15332 49.035 0 
100 50 2 1.27511 1.38165 49.6416 0 
2300 1150 2 1.27511 46.165 49.6494 0 
252 126 2 1.27511 5.45511 25.1612 0 
253 127 1 2 7.92575 25.576 0 
254 127 2 1.27511 8.7004 26.179 0 
255 128 1 2 6.22967 26.596 0 
256 128 2 1.27511 5.45548 27.1998 0 
257 129 1 2 7.92511 27.614 0 
258 129 2 1.27511 8.69937 28.2176 0 
259 130 1 2 6.23046 28.6346 0 
260 130 2 1.27511 5.45628 29.2385 0 
261 131 1 2 7.9264 29.6534 0 
262 131 2 1.27511 8.70065 30.2574 0 
263 132 1 2 6.23142 30.6731 0 
264 132 2 1.27511 5.45687 31.2765 0 
265 133 1 2 7.92756 31.6921 0 
266 133 2 1.27511 8.70169 32.2961 0 
267 134 1 2 6.23165 32.7108 0 
268 134 2 1.27511 5.45705 33.3141 0 
269 135 1 2 7.92689 33.7301 0 
270 135 2 1.27511 8.69901 34.3365 0 
271 136 1 2 6.231 34.7477 0 
272 136 2 1.27511 5.46014 35.3552 0 
273 137 1 2 7.92088 35.7682 0 
274 137 2 1.27511 8.69027 36.3775 0 
275 138 1 2 6.23149 36.7888 0 
276 138 2 1.27511 5.46031 37.3959 0 
277 139 1 2 7.91782 37.8115 0 
278 139 2 1.27511 8.6874 38.4208 0 
279 140 1 2 6.22839 38.8315 0 
280 140 2 1.27511 5.45665 39.4382 0 
281 141 1 2 7.91584 39.8539 0 
282 141 2 1.27511 8.6866 40.4616 0 
283 142 1 2 6.22482 40.8729 0 
284 142 2 1.27511 5.45308 41.4794 0 
285 143 1 2 7.91295 41.8944 0 
286 143 2 1.27511 8.68381 42.5018 0 
287 144 1 2 6.22261 42.9145 0 
288 144 2 1.27511 5.45178 43.5222 0 
289 145 1 2 7.91099 43.9357 0 
290 145 2 1.27511 8.68241 44.5425 0 
291 146 1 2 6.22161 44.957 0 
292 146 2 1.27511 5.45054 45.5645 0 
293 147 1 2 7.91111 45.9774 0 
294 147 2 1.27511 8.68439 46.5821 0 
295 148 1 2 6.22111 46.9998 0 
296 148 2 1.27511 5.44646 47.6032 0 
297 149 1 2 7.91547 48.0185 0 
298 149 2 1.27511 8.69144 48.62 0 
299 150 1 2 6.21999 49.0386 0 
300 150 2 1.27511 5.44557 49.6422 0 
2296 1148 2 1.27511 46.1601 47.6101 0 
452 226 2 1.27511 9.53045 25.1604 0 
453 227 1 2 12.0009 25.5776 0 
454 227 2 1.27511 12.7748 26.1817 0 
455 228 1 2 10.3039 26.5954 0 
456 228 2 1.27511 9.5287 27.198 0 
457 229 1 2 11.9986 27.6153 0 
458 229 2 1.27511 12.7719 28.2202 0 
459 230 1 2 10.3023 28.6326 0 
460 230 2 1.27511 9.52832 29.2366 0 
461 231 1 2 11.9959 29.6527 0 
462 231 2 1.27511 12.7657 30.2616 0 
463 232 1 2 10.3036 30.6702 0 
464 232 2 1.27511 9.53194 31.2768 0 
465 233 1 2 11.9914 31.6936 0 
466 233 2 1.27511 12.7614 32.3023 0 
467 234 1 2 10.3019 32.7118 0 
468 234 2 1.27511 9.53048 33.3184 0 
469 235 1 2 11.9884 33.7355 0 
470 235 2 1.27511 12.7592 34.3432 0 
471 236 1 2 10.2982 34.7546 0 
472 236 2 1.27511 9.52565 35.3603 0 
473 237 1 2 11.986 35.7773 0 
474 237 2 1.27511 12.7605 36.3807 0 
475 238 1 2 10.2919 36.7964 0 
476 238 2 1.27511 9.51735 37.3995 0 
477 239 1 2 11.9858 37.8156 0 
478 239 2 1.27511 12.7593 38.4199 0 
479 240 1 2 10.2898 38.8344 0 
480 240 2 1.27511 9.51835 39.4413 0 
481 241 1 2 11.9817 39.8541 0 
482 241 2 1.27511 12.7561 40.4576 0 
483 242 1 2 10.2881 40.8758 0 
484 242 2 1.27511 9.51672 41.4829 0 
485 243 1 2 11.9805 41.8937 0 
486 243 2 1.27511 12.756 42.4958 0 
487 244 1 2 10.2868 42.9175 0 
488 244 2 1.27511 9.51287 43.5218 0 
489 245 1 2 11.9831 43.9327 0 
490 245 2 1.27511 12.7588 44.5345 0 
491 246 1 2 10.2874 44.9559 0 
492 246 2 1.27511 9.51359 45.5606 0 
493 247 1 2 11.9855 45.9707 0 
494 247 2 1.27511 12.7613 46.5725 0 
495 248 1 2 10.2909 46.9935 0 
496 248 2 1.27511 9.51769 47.5985 0 
497 249 1 2 11.9889 48.009 0 
498 249 2 1.27511 12.7644 48.611 0 
499 250 1 2 10.2958 49.0322 0 
500 250 2 1.27511 9.52262 49.6375 0 
2290 1145 2 1.27511 49.3891 44.5463 0 
652 326 2 1.27511 13.6055 25.1637 0 
653 327 1 2 16.074 25.5836 0 
654 327 2 1.27511 16.8462 26.1898 0 
655 328 1 2 14.3773 26.5999 0 
656 328 2 1.27511 13.6023 27.2026 0 
657 329 1 2 16.069 27.6234 0 
658 329 2 1.27511 16.8412 28.2298 0 
659 330 1 2 14.3726 28.6399 0 
660 330 2 1.27511 13.5981 29.2432 0 
661 331 1 2 16.065 29.6631 0 
662 331 2 1.27511 16.8387 30.2675 0 
663 332 1 2 14.3682 30.68 0 
664 332 2 1.27511 13.5935 31.2832 0 
665 333 1 2 16.0622 31.7015 0 
666 333 2 1.27511 16.8368 32.3048 0 
667 334 1 2 14.3649 32.7194 0 
668 334 2 1.27511 13.5903 33.3228 0 
669 335 1 2 16.0606 33.739 0 
670 335 2 1.27511 16.8355 34.342 0 
671 336 1 2 14.364 34.7577 0 
672 336 2 1.27511 13.5896 35.3612 0 
673 337 1 2 16.0597 35.7767 0 
674 337 2 1.27511 16.8345 36.3796 0 
675 338 1 2 14.3634 36.7964 0 
676 338 2 1.27511 13.5891 37.4001 0 
677 339 1 2 16.0586 37.8146 0 
678 339 2 1.27511 16.8339 38.4169 0 
679 340 1 2 14.3619 38.8353 0 
680 340 2 1.27511 13.5873 39.439 0 
681 341 1 2 16.0578 39.852 0 
682 341 2 1.27511 16.8335 40.4537 0 
683 342 1 2 14.3606 40.8732 0 
684 342 2 1.27511 13.5853 41.476 0 
685 343 1 2 16.0576 41.8888 0 
686 343 2 1.27511 16.8334 42.4904 0 
687 344 1 2 14.361 42.91 0 
688 344 2 1.27511 13.5865 43.5136 0 
689 345 1 2 16.0583 43.9257 0 
690 345 2 1.27511 16.834 44.5274 0 
691 346 1 2 14.3629 44.9476 0 
692 346 2 1.27511 13.5893 45.5522 0 
693 347 1 2 16.06 45.9632 0 
694 347 2 1.27511 16.8355 46.5651 0 
695 348 1 2 14.3658 46.9857 0 
696 348 2 1.27511 13.592 47.5902 0 
697 349 1 2 16.0633 48.0016 0 
698 349 2 1.27511 16.8386 48.6041 0 
699 350 1 2 14.3692 49.0236 0 
700 350 2 1.27511 13.5955 49.6282 0 
2294 1147 2 1.27511 49.3941 46.5871 0 
852 426 2 1.27511 17.6795 25.1732 0 
853 427 1 2 20.1404 25.5917 0 
854 427 2 1.27511 20.9149 26.195 0 
855 428 1 2 18.4469 26.6098 0 
856 428 2 1.27511 17.6718 27.2121 0 
857 429 1 2 20.1409 27.6297 0 
858 429 2 1.27511 20.9155 28.2328 0 
859 430 1 2 18.4446 28.6474 0 
860 430 2 1.27511 17.6692 29.2497 0 
861 431 1 2 20.1397 29.6669 0 
862 431 2 1.27511 20.9148 30.2694 0 
863 432 1 2 18.4427 30.6848 0 
864 432 2 1.27511 17.667 31.2868 0 
865 433 1 2 20.1387 31.7037 0 
866 433 2 1.27511 20.9141 32.3061 0 
867 434 1 2 18.4413 32.7218 0 
868 434 2 1.27511 17.6656 33.3237 0 
869 435 1 2 20.1376 33.7403 0 
870 435 2 1.27511 20.9132 34.3424 0 
871 436 1 2 18.44 34.7587 0 
872 436 2 1.27511 17.6644 35.3608 0 
873 437 1 2 20.1367 35.7767 0 
874 437 2 1.27511 20.9125 36.3785 0 
875 438 1 2 18.4391 36.7955 0 
876 438 2 1.27511 17.6636 37.3979 0 
877 439 1 2 20.136 37.8129 0 
878 439 2 1.27511 20.9118 38.4146 0 
879 440 1 2 18.4385 38.8323 0 
880 440 2 1.27511 17.6631 39.4348 0 
881 441 1 2 20.1354 39.8491 0 
882 441 2 1.27511 20.9113 40.4507 0 
883 442 1 2 18.4381 40.8688 0 
884 442 2 1.27511 17.6628 41.4714 0 
885 443 1 2 20.135 41.8852 0 
886 443 2 1.27511 20.9108 42.4868 0 
887 444 1 2 18.4381 42.9053 0 
888 444 2 1.27511 17.663 43.5081 0 
889 445 1 2 20.1347 43.9215 0 
890 445 2 1.27511 20.9103 44.5234 0 
891 446 1 2 18.4384 44.9418 0 
892 446 2 1.27511 17.6638 45.5452 0 
893 447 1 2 20.1348 45.9581 0 
894 447 2 1.27511 20.9097 46.5606 0 
895 448 1 2 18.4397 46.9787 0 
896 448 2 1.27511 17.6656 47.5827 0 
897 449 1 2 20.1358 47.9959 0 
898 449 2 1.27511 20.9093 48.6005 0 
899 450 1 2 18.4413 49.0158 0 
900 450 2 1.27511 17.6703 49.6233 0 
2293 1147 1 2 48.621 45.9821 0 
1052 526 2 1.27511 21.7434 25.1758 0 
1053 527 1 2 24.2139 25.5905 0 
1054 527 2 1.27511 24.9889 26.1932 0 
1055 528 1 2 22.5187 26.6101 0 
1056 528 2 1.27511 21.7444 27.2137 0 
1057 529 1 2 24.2147 27.6282 0 
1058 529 2 1.27511 24.9898 28.2308 0 
1059 530 1 2 22.5193 28.648 0 
1060 530 2 1.27511 21.7446 29.2512 0 
1061 531 1 2 24.2154 29.6659 0 
1062 531 2 1.27511 24.9907 30.2682 0 
1063 532 1 2 22.5192 30.6855 0 
1064 532 2 1.27511 21.7438 31.2878 0 
1065 533 1 2 24.2157 31.7031 0 
1066 533 2 1.27511 24.9912 32.3053 0 
1067 534 1 2 22.5188 32.7223 0 
1068 534 2 1.27511 21.7432 33.3244 0 
1069 535 1 2 24.2157 33.74 0 
1070 535 2 1.27511 24.9913 34.3419 0 
1071 536 1 2 22.5184 34.7587 0 